 Entering Gaussian System, Link 0=g16
 Initial command:
 /opt/software/g16/l1.exe "/tmp/8mobius-20195.tmp/Gau-12964.inp" -scrdir="/tmp/8mobius-20195.tmp/"
 Entering Link 1 = /opt/software/g16/l1.exe PID=     12965.
  
 Copyright (c) 1988-2017, Gaussian, Inc.  All Rights Reserved.
  
 This is part of the Gaussian(R) 16 program.  It is based on
 the Gaussian(R) 09 system (copyright 2009, Gaussian, Inc.),
 the Gaussian(R) 03 system (copyright 2003, Gaussian, Inc.),
 the Gaussian(R) 98 system (copyright 1998, Gaussian, Inc.),
 the Gaussian(R) 94 system (copyright 1995, Gaussian, Inc.),
 the Gaussian 92(TM) system (copyright 1992, Gaussian, Inc.),
 the Gaussian 90(TM) system (copyright 1990, Gaussian, Inc.),
 the Gaussian 88(TM) system (copyright 1988, Gaussian, Inc.),
 the Gaussian 86(TM) system (copyright 1986, Carnegie Mellon
 University), and the Gaussian 82(TM) system (copyright 1983,
 Carnegie Mellon University). Gaussian is a federally registered
 trademark of Gaussian, Inc.
  
 This software contains proprietary and confidential information,
 including trade secrets, belonging to Gaussian, Inc.
  
 This software is provided under written license and may be
 used, copied, transmitted, or stored only in accord with that
 written license.
  
 The following legend is applicable only to US Government
 contracts under FAR:
  
                    RESTRICTED RIGHTS LEGEND
  
 Use, reproduction and disclosure by the US Government is
 subject to restrictions as set forth in subparagraphs (a)
 and (c) of the Commercial Computer Software - Restricted
 Rights clause in FAR 52.227-19.
  
 Gaussian, Inc.
 340 Quinnipiac St., Bldg. 40, Wallingford CT 06492
  
  
 ---------------------------------------------------------------
 Warning -- This program may not be used in any manner that
 competes with the business of Gaussian, Inc. or will provide
 assistance to any competitor of Gaussian, Inc.  The licensee
 of this program is prohibited from giving any competitor of
 Gaussian, Inc. access to this program.  By using this program,
 the user acknowledges that Gaussian, Inc. is engaged in the
 business of creating and licensing software in the field of
 computational chemistry and represents and warrants to the
 licensee that it is not a competitor of Gaussian, Inc. and that
 it will not use this program in any manner prohibited above.
 ---------------------------------------------------------------
  

 Cite this work as:
 Gaussian 16, Revision B.01,
 M. J. Frisch, G. W. Trucks, H. B. Schlegel, G. E. Scuseria, 
 M. A. Robb, J. R. Cheeseman, G. Scalmani, V. Barone, 
 G. A. Petersson, H. Nakatsuji, X. Li, M. Caricato, A. V. Marenich, 
 J. Bloino, B. G. Janesko, R. Gomperts, B. Mennucci, H. P. Hratchian, 
 J. V. Ortiz, A. F. Izmaylov, J. L. Sonnenberg, D. Williams-Young, 
 F. Ding, F. Lipparini, F. Egidi, J. Goings, B. Peng, A. Petrone, 
 T. Henderson, D. Ranasinghe, V. G. Zakrzewski, J. Gao, N. Rega, 
 G. Zheng, W. Liang, M. Hada, M. Ehara, K. Toyota, R. Fukuda, 
 J. Hasegawa, M. Ishida, T. Nakajima, Y. Honda, O. Kitao, H. Nakai, 
 T. Vreven, K. Throssell, J. A. Montgomery, Jr., J. E. Peralta, 
 F. Ogliaro, M. J. Bearpark, J. J. Heyd, E. N. Brothers, K. N. Kudin, 
 V. N. Staroverov, T. A. Keith, R. Kobayashi, J. Normand, 
 K. Raghavachari, A. P. Rendell, J. C. Burant, S. S. Iyengar, 
 J. Tomasi, M. Cossi, J. M. Millam, M. Klene, C. Adamo, R. Cammi, 
 J. W. Ochterski, R. L. Martin, K. Morokuma, O. Farkas, 
 J. B. Foresman, and D. J. Fox, Gaussian, Inc., Wallingford CT, 2016.
 
 ******************************************
 Gaussian 16:  ES64L-G16RevB.01 20-Dec-2017
                26-Apr-2025 
 ******************************************
 %nproc=28
 Will use up to   28 processors via shared memory.
 ----------------------
 # B3LYP/6-311G* NOSYMM
 ----------------------
 1/38=1,172=1/1;
 2/12=2,15=1,17=6,18=5,40=1/2;
 3/5=4,6=6,7=1,11=2,25=1,30=1,74=-5/1,2,3;
 4//1;
 5/5=2,38=5/2;
 6/7=2,8=2,9=2,10=2,28=1/1;
 99/5=1,9=1/99;
 --------------------------
 From 8mobius_opt-cont1.out
 --------------------------
 Symbolic Z-matrix:
 Charge =  0 Multiplicity = 1
 6                     5.92214  -2.72948  -0.85719 
 6                     6.21471  -1.38699  -1.19564 
 6                     6.01569  -0.96889  -2.56491 
 6                     5.25714   0.14216  -2.78043 
 6                     6.17499  -0.39039  -0.17846 
 6                     5.71866   0.93888  -0.49402 
 6                     4.91149   0.98804  -1.67794 
 6                     3.64009   1.56838  -1.43777 
 6                     2.42881   0.89415  -1.79063 
 6                     1.30181   1.09637  -1.02601 
 6                     3.5728    2.624    -0.48853 
 6                     2.30658   3.13769  -0.11408 
 6                     1.22837   2.20178  -0.13226 
 6                     0.18976   2.48943   0.79522 
 6                    -0.59555   1.55554   1.52823 
 6                    -1.67825   1.98254   2.26249 
 6                    -0.099     3.88188   0.93199 
 6                    -1.44796   4.19561   1.23734 
 6                    -2.21832   3.28386   2.00875 
 6                    -3.60919   3.53314   2.12397 
 6                    -4.49918   2.90366   3.05414 
 6                    -5.71019   2.45327   2.62469 
 6                    -4.15849   4.11233   0.93329 
 6                    -5.24423   3.34336   0.37862 
 6                    -5.94047   2.40805   1.19798 
 6                    -6.39644   1.19659   0.62628 
 6                    -5.91179   0.87497  -0.67697 
 6                    -5.49523  -0.48271  -0.92168 
 6                    -4.73415  -0.79289  -2.08634 
 6                    -4.686     0.21176  -3.11139 
 6                    -5.06347   1.50719  -2.86693 
 6                    -3.89489  -1.95745  -2.07828 
 6                    -3.05556  -2.33874  -3.17265 
 6                    -2.01284  -3.21188  -3.01246 
 6                    -3.72715  -2.67305  -0.85144 
 6                    -4.65049  -2.48049   0.21955 
 6                    -4.4231   -3.19926   1.43896 
 6                    -3.23831  -3.8364    1.67418 
 6                    -2.21409  -3.90111   0.67807 
 6                    -2.54937  -3.47175  -0.64386 
 6                    -1.65269  -3.72268  -1.72413 
 6                    -0.38727  -4.33088  -1.45878 
 6                     0.06799  -4.40781  -0.10569 
 6                    -0.85458  -4.2343    0.96796 
 6                    -0.32779  -4.25984   2.29931 
 6                     1.02036  -4.23131   2.53888 
 6                     1.97661  -4.25877   1.47445 
 6                     3.34235  -3.84017   1.61999 
 6                     3.85268  -3.19143   2.79576 
 6                     4.92363  -2.33667   2.73772 
 6                    -5.6129   -1.44028   0.13215 
 6                    -6.54591  -1.15395   1.18877 
 6                    -6.93556   0.12659   1.42529 
 6                    -5.52649   1.91818  -1.57202 
 6                    -5.29131   3.23788  -1.04433 
 6                    -4.73002   4.33628  -1.78358 
 6                    -3.8721    5.23822  -1.1947 
 6                    -3.40126   5.01787   0.14176 
 6                    -2.03166   5.29549   0.54297 
 6                    -1.13295   6.30438   0.09385 
 6                     0.24735   6.16439   0.23278 
 6                     0.81662   4.90411   0.56127 
 6                     2.19285   4.44439   0.4343 
 6                     3.40349   5.04682   0.87015 
 6                     4.58742   4.31011   0.9169 
 6                     4.70122   3.04641   0.27284 
 6                     5.64268   1.95951   0.49171 
 6                     6.15685   1.62813   1.78799 
 6                     6.32888   0.30906   2.14764 
 6                     6.154    -0.75844   1.20094 
 6                     5.57871  -2.0471    1.49364 
 6                     5.31846  -2.94774   0.41756 
 6                     4.18827  -3.84076   0.47268 
 6                     3.76863  -4.4958   -0.72569 
 6                     2.38491  -4.74646  -0.9172 
 6                     1.83488  -4.98743  -2.21941 
 6                     0.51881  -4.74164  -2.48651 
 6                     1.47669  -4.52237   0.16075 
 6                     4.73262  -4.62051  -1.78724 
 6                     5.78396  -3.76192  -1.8519 
 1                     6.24606  -1.64134  -3.38398 
 1                     4.86149   0.36349  -3.7681 
 1                     2.46312   0.08287  -2.51113 
 1                     0.44235   0.44098  -1.13182 
 1                    -0.3105    0.50756   1.52947 
 1                    -2.25045   1.27601   2.85553 
 1                    -4.17226   2.73549   4.07687 
 1                    -6.37334   1.93233   3.3066 
 1                    -4.23242  -0.02249  -4.06907 
 1                    -4.88614   2.25704  -3.63199 
 1                    -3.22412  -1.9007   -4.15134 
 1                    -1.38335  -3.43314  -3.86794 
 1                    -5.15571  -3.14237   2.23665 
 1                    -3.06571  -4.28824   2.64585 
 1                    -1.00732  -4.19134   3.14231 
 1                     1.36652  -4.14657   3.56414 
 1                     3.31334  -3.28153   3.73322 
 1                     5.1897   -1.76948   3.62468 
 1                    -6.88055  -1.9517    1.84457 
 1                    -7.56867   0.35565   2.27741 
 1                    -4.91288   4.40918  -2.85192 
 1                    -3.40208   6.00161  -1.80889 
 1                    -1.52766   7.2079   -0.36338 
 1                     0.89632   6.9845   -0.06305 
 1                     3.37982   6.04139   1.30778 
 1                     5.44379   4.7211    1.44502 
 1                     6.2207    2.39873   2.55158 
 1                     6.51772   0.0712    3.19074 
 1                     2.49475  -5.25815  -3.0364 
 1                     0.15846  -4.84271  -3.50534 
 1                     4.57411  -5.34486  -2.58009 
 1                     6.45883  -3.78502  -2.7027 
 
 Symmetry turned off by external request.
 Stoichiometry    C80H32
 Framework group  C1[X(C80H32)]
 Deg. of freedom   330
 Full point group                 C1      NOp   1
                          Input orientation:                          
 ---------------------------------------------------------------------
 Center     Atomic      Atomic             Coordinates (Angstroms)
 Number     Number       Type             X           Y           Z
 ---------------------------------------------------------------------
      1          6           0        5.922144   -2.729479   -0.857187
      2          6           0        6.214706   -1.386989   -1.195639
      3          6           0        6.015687   -0.968894   -2.564907
      4          6           0        5.257144    0.142161   -2.780429
      5          6           0        6.174990   -0.390389   -0.178457
      6          6           0        5.718655    0.938878   -0.494016
      7          6           0        4.911489    0.988042   -1.677936
      8          6           0        3.640087    1.568384   -1.437766
      9          6           0        2.428810    0.894146   -1.790634
     10          6           0        1.301812    1.096372   -1.026014
     11          6           0        3.572797    2.624004   -0.488531
     12          6           0        2.306576    3.137687   -0.114084
     13          6           0        1.228374    2.201777   -0.132257
     14          6           0        0.189762    2.489432    0.795216
     15          6           0       -0.595546    1.555536    1.528228
     16          6           0       -1.678253    1.982544    2.262491
     17          6           0       -0.099001    3.881876    0.931992
     18          6           0       -1.447963    4.195606    1.237336
     19          6           0       -2.218320    3.283858    2.008748
     20          6           0       -3.609192    3.533135    2.123970
     21          6           0       -4.499176    2.903656    3.054135
     22          6           0       -5.710191    2.453273    2.624685
     23          6           0       -4.158492    4.112330    0.933294
     24          6           0       -5.244232    3.343359    0.378615
     25          6           0       -5.940471    2.408048    1.197981
     26          6           0       -6.396441    1.196591    0.626275
     27          6           0       -5.911789    0.874966   -0.676970
     28          6           0       -5.495231   -0.482707   -0.921683
     29          6           0       -4.734153   -0.792894   -2.086337
     30          6           0       -4.686000    0.211757   -3.111393
     31          6           0       -5.063467    1.507185   -2.866925
     32          6           0       -3.894889   -1.957445   -2.078281
     33          6           0       -3.055558   -2.338739   -3.172645
     34          6           0       -2.012842   -3.211879   -3.012459
     35          6           0       -3.727152   -2.673054   -0.851439
     36          6           0       -4.650493   -2.480485    0.219552
     37          6           0       -4.423097   -3.199256    1.438957
     38          6           0       -3.238314   -3.836395    1.674181
     39          6           0       -2.214087   -3.901109    0.678071
     40          6           0       -2.549366   -3.471753   -0.643859
     41          6           0       -1.652688   -3.722681   -1.724132
     42          6           0       -0.387270   -4.330883   -1.458782
     43          6           0        0.067993   -4.407810   -0.105693
     44          6           0       -0.854576   -4.234299    0.967961
     45          6           0       -0.327789   -4.259843    2.299306
     46          6           0        1.020358   -4.231306    2.538881
     47          6           0        1.976605   -4.258767    1.474454
     48          6           0        3.342355   -3.840169    1.619986
     49          6           0        3.852683   -3.191425    2.795762
     50          6           0        4.923629   -2.336671    2.737720
     51          6           0       -5.612900   -1.440280    0.132145
     52          6           0       -6.545906   -1.153950    1.188772
     53          6           0       -6.935561    0.126591    1.425294
     54          6           0       -5.526490    1.918177   -1.572022
     55          6           0       -5.291306    3.237879   -1.044328
     56          6           0       -4.730019    4.336275   -1.783576
     57          6           0       -3.872100    5.238224   -1.194701
     58          6           0       -3.401265    5.017870    0.141756
     59          6           0       -2.031658    5.295491    0.542973
     60          6           0       -1.132952    6.304378    0.093852
     61          6           0        0.247349    6.164385    0.232778
     62          6           0        0.816621    4.904106    0.561273
     63          6           0        2.192846    4.444392    0.434295
     64          6           0        3.403485    5.046822    0.870152
     65          6           0        4.587415    4.310106    0.916902
     66          6           0        4.701218    3.046408    0.272836
     67          6           0        5.642677    1.959513    0.491713
     68          6           0        6.156847    1.628125    1.787987
     69          6           0        6.328879    0.309061    2.147640
     70          6           0        6.153997   -0.758442    1.200943
     71          6           0        5.578710   -2.047098    1.493642
     72          6           0        5.318455   -2.947741    0.417563
     73          6           0        4.188265   -3.840758    0.472677
     74          6           0        3.768625   -4.495795   -0.725686
     75          6           0        2.384906   -4.746457   -0.917195
     76          6           0        1.834875   -4.987430   -2.219414
     77          6           0        0.518812   -4.741636   -2.486507
     78          6           0        1.476690   -4.522373    0.160747
     79          6           0        4.732622   -4.620508   -1.787243
     80          6           0        5.783962   -3.761921   -1.851898
     81          1           0        6.246064   -1.641340   -3.383980
     82          1           0        4.861487    0.363490   -3.768102
     83          1           0        2.463119    0.082865   -2.511131
     84          1           0        0.442346    0.440980   -1.131819
     85          1           0       -0.310498    0.507557    1.529472
     86          1           0       -2.250453    1.276010    2.855530
     87          1           0       -4.172260    2.735489    4.076869
     88          1           0       -6.373340    1.932328    3.306600
     89          1           0       -4.232423   -0.022493   -4.069069
     90          1           0       -4.886139    2.257040   -3.631987
     91          1           0       -3.224116   -1.900696   -4.151342
     92          1           0       -1.383351   -3.433135   -3.867940
     93          1           0       -5.155710   -3.142367    2.236648
     94          1           0       -3.065714   -4.288244    2.645845
     95          1           0       -1.007321   -4.191336    3.142308
     96          1           0        1.366521   -4.146570    3.564143
     97          1           0        3.313338   -3.281525    3.733222
     98          1           0        5.189696   -1.769483    3.624682
     99          1           0       -6.880550   -1.951704    1.844573
    100          1           0       -7.568672    0.355650    2.277410
    101          1           0       -4.912883    4.409184   -2.851919
    102          1           0       -3.402078    6.001610   -1.808889
    103          1           0       -1.527660    7.207898   -0.363384
    104          1           0        0.896315    6.984498   -0.063053
    105          1           0        3.379817    6.041390    1.307777
    106          1           0        5.443794    4.721098    1.445022
    107          1           0        6.220695    2.398732    2.551582
    108          1           0        6.517723    0.071198    3.190738
    109          1           0        2.494750   -5.258148   -3.036397
    110          1           0        0.158458   -4.842714   -3.505335
    111          1           0        4.574111   -5.344864   -2.580086
    112          1           0        6.458833   -3.785022   -2.702700
 ---------------------------------------------------------------------
 Rotational constants (GHZ):           0.0397516           0.0245848           0.0180196
 Standard basis: 6-311G(d) (5D, 7F)
  1536 basis functions,  2720 primitive gaussians,  1616 cartesian basis functions
   256 alpha electrons      256 beta electrons
       nuclear repulsion energy     12224.9506990205 Hartrees.
 NAtoms=  112 NActive=  112 NUniq=  112 SFac= 1.00D+00 NAtFMM=   60 NAOKFM=T Big=T
 Integral buffers will be    131072 words long.
 Raffenetti 2 integral format.
 Two-electron integral symmetry is turned off.
 One-electron integrals computed using PRISM.
 NBasis=  1536 RedAO= T EigKep=  2.56D-05  NBF=  1536
 NBsUse=  1536 1.00D-06 EigRej= -1.00D+00 NBFU=  1536
 ExpMin= 1.03D-01 ExpMax= 4.56D+03 ExpMxC= 6.82D+02 IAcc=3 IRadAn=         5 AccDes= 0.00D+00
 Harris functional with IExCor=  402 and IRadAn=       5 diagonalized for initial guess.
 HarFok:  IExCor=  402 AccDes= 0.00D+00 IRadAn=         5 IDoV= 1 UseB2=F ITyADJ=14
 ICtDFT=  3500011 ScaDFX=  1.000000  1.000000  1.000000  1.000000
 FoFCou: FMM=F IPFlag=           0 FMFlag=      100000 FMFlg1=        2001
         NFxFlg=           0 DoJE=T BraDBF=F KetDBF=T FulRan=T
         wScrn=  0.000000 ICntrl=       500 IOpCl=  0 I1Cent=   200000004 NGrid=           0
         NMat0=    1 NMatS0=      1 NMatT0=    0 NMatD0=    1 NMtDS0=    0 NMtDT0=    0
 Symmetry not used in FoFCou.
 Requested convergence on RMS density matrix=1.00D-08 within 128 cycles.
 Requested convergence on MAX density matrix=1.00D-06.
 Requested convergence on             energy=1.00D-06.
 No special actions if energy rises.
 Integral accuracy reduced to 1.0D-05 until final iterations.
 Problem detected with inexpensive integrals.
 Switching to full accuracy and repeating last cycle.
 SCF Done:  E(RB3LYP) =  -3068.34351524     A.U. after   16 cycles
            NFock= 16  Conv=0.62D-08     -V/T= 2.0043
 Hyperfine terms turned off by default for NAtoms > 100.

 **********************************************************************

            Population analysis using the SCF Density.

 **********************************************************************

 Alpha  occ. eigenvalues --  -10.19872 -10.19854 -10.19817 -10.19776 -10.19735
 Alpha  occ. eigenvalues --  -10.19732 -10.19674 -10.19673 -10.19665 -10.19657
 Alpha  occ. eigenvalues --  -10.19647 -10.19622 -10.19616 -10.19615 -10.19601
 Alpha  occ. eigenvalues --  -10.19588 -10.19576 -10.19560 -10.19560 -10.19550
 Alpha  occ. eigenvalues --  -10.19541 -10.19536 -10.19508 -10.19504 -10.19499
 Alpha  occ. eigenvalues --  -10.19496 -10.19495 -10.19492 -10.19479 -10.19465
 Alpha  occ. eigenvalues --  -10.19458 -10.19452 -10.19443 -10.19440 -10.19437
 Alpha  occ. eigenvalues --  -10.19425 -10.19407 -10.19399 -10.19397 -10.19372
 Alpha  occ. eigenvalues --  -10.19186 -10.19157 -10.19146 -10.19102 -10.18985
 Alpha  occ. eigenvalues --  -10.18939 -10.18934 -10.18934 -10.18907 -10.18859
 Alpha  occ. eigenvalues --  -10.18807 -10.18780 -10.18745 -10.18728 -10.18686
 Alpha  occ. eigenvalues --  -10.18661 -10.18609 -10.18592 -10.18524 -10.18512
 Alpha  occ. eigenvalues --  -10.18497 -10.18497 -10.18492 -10.18488 -10.18464
 Alpha  occ. eigenvalues --  -10.18455 -10.18455 -10.18446 -10.18423 -10.18421
 Alpha  occ. eigenvalues --  -10.18419 -10.18404 -10.18399 -10.18398 -10.18379
 Alpha  occ. eigenvalues --  -10.18379 -10.18352 -10.18350 -10.18010 -10.17992
 Alpha  occ. eigenvalues --   -0.92038  -0.91692  -0.91385  -0.90410  -0.90405
 Alpha  occ. eigenvalues --   -0.88574  -0.88559  -0.86390  -0.85597  -0.85583
 Alpha  occ. eigenvalues --   -0.85472  -0.84872  -0.84673  -0.83547  -0.83521
 Alpha  occ. eigenvalues --   -0.82793  -0.82733  -0.81902  -0.81899  -0.79115
 Alpha  occ. eigenvalues --   -0.79112  -0.78265  -0.78072  -0.77081  -0.77061
 Alpha  occ. eigenvalues --   -0.76656  -0.75729  -0.75619  -0.75501  -0.75466
 Alpha  occ. eigenvalues --   -0.74987  -0.74929  -0.74545  -0.74242  -0.74240
 Alpha  occ. eigenvalues --   -0.72318  -0.72309  -0.71388  -0.69476  -0.69246
 Alpha  occ. eigenvalues --   -0.66845  -0.66048  -0.65747  -0.65571  -0.64703
 Alpha  occ. eigenvalues --   -0.64446  -0.64284  -0.64211  -0.63508  -0.63363
 Alpha  occ. eigenvalues --   -0.62823  -0.62807  -0.62362  -0.62348  -0.61672
 Alpha  occ. eigenvalues --   -0.61531  -0.59940  -0.59669  -0.58274  -0.58264
 Alpha  occ. eigenvalues --   -0.58028  -0.56118  -0.55919  -0.55479  -0.54931
 Alpha  occ. eigenvalues --   -0.54440  -0.54428  -0.53511  -0.53470  -0.53361
 Alpha  occ. eigenvalues --   -0.53303  -0.53021  -0.51966  -0.51708  -0.50898
 Alpha  occ. eigenvalues --   -0.50592  -0.50578  -0.50147  -0.50113  -0.49701
 Alpha  occ. eigenvalues --   -0.48916  -0.48532  -0.48524  -0.48345  -0.48314
 Alpha  occ. eigenvalues --   -0.48134  -0.47777  -0.47253  -0.46969  -0.45420
 Alpha  occ. eigenvalues --   -0.45327  -0.45217  -0.45123  -0.44874  -0.44718
 Alpha  occ. eigenvalues --   -0.44651  -0.44625  -0.44539  -0.44233  -0.44197
 Alpha  occ. eigenvalues --   -0.43768  -0.43716  -0.43361  -0.43238  -0.42985
 Alpha  occ. eigenvalues --   -0.42855  -0.42568  -0.42506  -0.42129  -0.42061
 Alpha  occ. eigenvalues --   -0.41944  -0.41662  -0.41539  -0.41317  -0.40981
 Alpha  occ. eigenvalues --   -0.40894  -0.40830  -0.40703  -0.40649  -0.40320
 Alpha  occ. eigenvalues --   -0.40236  -0.40201  -0.40082  -0.39613  -0.39476
 Alpha  occ. eigenvalues --   -0.39394  -0.39165  -0.38608  -0.38567  -0.37394
 Alpha  occ. eigenvalues --   -0.37234  -0.36959  -0.36762  -0.36354  -0.35621
 Alpha  occ. eigenvalues --   -0.35259  -0.35162  -0.35128  -0.34657  -0.34631
 Alpha  occ. eigenvalues --   -0.34467  -0.34302  -0.33862  -0.33357  -0.33289
 Alpha  occ. eigenvalues --   -0.33138  -0.32935  -0.32789  -0.32750  -0.32573
 Alpha  occ. eigenvalues --   -0.32315  -0.31772  -0.31494  -0.31037  -0.29800
 Alpha  occ. eigenvalues --   -0.29768  -0.28732  -0.27179  -0.27149  -0.26745
 Alpha  occ. eigenvalues --   -0.26474  -0.26426  -0.26020  -0.25705  -0.25675
 Alpha  occ. eigenvalues --   -0.25235  -0.25085  -0.24623  -0.24597  -0.22825
 Alpha  occ. eigenvalues --   -0.22684  -0.21310  -0.20961  -0.19376  -0.18306
 Alpha  occ. eigenvalues --   -0.15796
 Alpha virt. eigenvalues --   -0.11239  -0.09169  -0.07861  -0.06265  -0.06161
 Alpha virt. eigenvalues --   -0.05292  -0.05095  -0.04681  -0.03778  -0.03530
 Alpha virt. eigenvalues --   -0.02971  -0.02320  -0.02066  -0.02013  -0.01013
 Alpha virt. eigenvalues --   -0.00977  -0.00745  -0.00330   0.00336   0.00384
 Alpha virt. eigenvalues --    0.02823   0.03525   0.03609   0.03810   0.04064
 Alpha virt. eigenvalues --    0.04093   0.04420   0.04711   0.04904   0.04943
 Alpha virt. eigenvalues --    0.05172   0.05351   0.05745   0.05795   0.06167
 Alpha virt. eigenvalues --    0.06240   0.06572   0.06875   0.07083   0.07742
 Alpha virt. eigenvalues --    0.07833   0.08270   0.08466   0.08580   0.08646
 Alpha virt. eigenvalues --    0.09328   0.09821   0.10249   0.10432   0.10584
 Alpha virt. eigenvalues --    0.10906   0.11722   0.11973   0.12086   0.12449
 Alpha virt. eigenvalues --    0.12919   0.13137   0.13344   0.13669   0.13723
 Alpha virt. eigenvalues --    0.13966   0.14364   0.15092   0.15347   0.15697
 Alpha virt. eigenvalues --    0.16117   0.16417   0.17404   0.17739   0.18118
 Alpha virt. eigenvalues --    0.19407   0.19516   0.19782   0.19984   0.20479
 Alpha virt. eigenvalues --    0.20693   0.20741   0.20834   0.20947   0.21462
 Alpha virt. eigenvalues --    0.21534   0.22049   0.22481   0.22920   0.23021
 Alpha virt. eigenvalues --    0.23452   0.23659   0.23810   0.23903   0.24000
 Alpha virt. eigenvalues --    0.24137   0.24448   0.24580   0.25219   0.25473
 Alpha virt. eigenvalues --    0.25544   0.25973   0.26101   0.26133   0.26751
 Alpha virt. eigenvalues --    0.26795   0.26826   0.26944   0.27266   0.27316
 Alpha virt. eigenvalues --    0.27745   0.28206   0.28634   0.28642   0.29487
 Alpha virt. eigenvalues --    0.29689   0.29753   0.29853   0.30457   0.30684
 Alpha virt. eigenvalues --    0.31276   0.31373   0.31619   0.31702   0.31786
 Alpha virt. eigenvalues --    0.31955   0.32090   0.32232   0.32563   0.32962
 Alpha virt. eigenvalues --    0.33002   0.33072   0.33704   0.34003   0.34409
 Alpha virt. eigenvalues --    0.34781   0.34813   0.34857   0.34938   0.35342
 Alpha virt. eigenvalues --    0.35411   0.35853   0.36229   0.36512   0.36754
 Alpha virt. eigenvalues --    0.36825   0.37043   0.37154   0.37414   0.37554
 Alpha virt. eigenvalues --    0.37601   0.37661   0.37706   0.38300   0.38453
 Alpha virt. eigenvalues --    0.38533   0.38599   0.38806   0.38920   0.39037
 Alpha virt. eigenvalues --    0.39110   0.39187   0.39336   0.39378   0.39468
 Alpha virt. eigenvalues --    0.39520   0.39894   0.40032   0.40110   0.40335
 Alpha virt. eigenvalues --    0.40348   0.40498   0.40719   0.40731   0.40811
 Alpha virt. eigenvalues --    0.40896   0.41145   0.41266   0.41323   0.41387
 Alpha virt. eigenvalues --    0.41404   0.41545   0.41822   0.42024   0.42181
 Alpha virt. eigenvalues --    0.42343   0.42429   0.42537   0.42558   0.42713
 Alpha virt. eigenvalues --    0.42744   0.42851   0.42974   0.43070   0.43141
 Alpha virt. eigenvalues --    0.43214   0.43250   0.43523   0.43535   0.43684
 Alpha virt. eigenvalues --    0.43756   0.43963   0.44044   0.44107   0.44337
 Alpha virt. eigenvalues --    0.44471   0.44531   0.44588   0.44785   0.44806
 Alpha virt. eigenvalues --    0.44879   0.45105   0.45294   0.45306   0.45434
 Alpha virt. eigenvalues --    0.45519   0.45754   0.45820   0.45927   0.46095
 Alpha virt. eigenvalues --    0.46107   0.46171   0.46594   0.46646   0.46855
 Alpha virt. eigenvalues --    0.47040   0.47175   0.47425   0.47459   0.47528
 Alpha virt. eigenvalues --    0.47546   0.47848   0.48023   0.48210   0.48259
 Alpha virt. eigenvalues --    0.48423   0.48430   0.48839   0.48959   0.49354
 Alpha virt. eigenvalues --    0.49523   0.49715   0.49901   0.50088   0.50262
 Alpha virt. eigenvalues --    0.50320   0.50598   0.50975   0.51102   0.51301
 Alpha virt. eigenvalues --    0.51490   0.51870   0.52239   0.52249   0.52601
 Alpha virt. eigenvalues --    0.52849   0.52964   0.53090   0.53233   0.53447
 Alpha virt. eigenvalues --    0.53552   0.53676   0.54077   0.54244   0.54340
 Alpha virt. eigenvalues --    0.54515   0.54618   0.54685   0.54977   0.55103
 Alpha virt. eigenvalues --    0.55574   0.55653   0.55964   0.56009   0.56330
 Alpha virt. eigenvalues --    0.56548   0.56824   0.56943   0.57291   0.57463
 Alpha virt. eigenvalues --    0.57792   0.58039   0.58199   0.58457   0.58575
 Alpha virt. eigenvalues --    0.58911   0.59027   0.59152   0.59458   0.59651
 Alpha virt. eigenvalues --    0.59825   0.60002   0.60265   0.60430   0.60576
 Alpha virt. eigenvalues --    0.60787   0.60972   0.61074   0.61134   0.61186
 Alpha virt. eigenvalues --    0.61327   0.61464   0.61882   0.61898   0.62083
 Alpha virt. eigenvalues --    0.62218   0.62288   0.62457   0.62622   0.62685
 Alpha virt. eigenvalues --    0.62894   0.62948   0.63052   0.63471   0.63546
 Alpha virt. eigenvalues --    0.63554   0.63735   0.63876   0.64014   0.64115
 Alpha virt. eigenvalues --    0.64260   0.64361   0.64784   0.65114   0.65381
 Alpha virt. eigenvalues --    0.65460   0.65573   0.65777   0.65903   0.66120
 Alpha virt. eigenvalues --    0.66301   0.66729   0.66868   0.66967   0.67023
 Alpha virt. eigenvalues --    0.67381   0.67672   0.67821   0.68543   0.68596
 Alpha virt. eigenvalues --    0.68736   0.68789   0.69020   0.69339   0.69817
 Alpha virt. eigenvalues --    0.70018   0.70034   0.70559   0.70964   0.71186
 Alpha virt. eigenvalues --    0.71311   0.71421   0.71542   0.71936   0.72200
 Alpha virt. eigenvalues --    0.72371   0.72862   0.72966   0.73004   0.73116
 Alpha virt. eigenvalues --    0.73226   0.73524   0.73652   0.73934   0.73996
 Alpha virt. eigenvalues --    0.74083   0.74612   0.74752   0.75240   0.75300
 Alpha virt. eigenvalues --    0.75726   0.76075   0.76267   0.76561   0.76885
 Alpha virt. eigenvalues --    0.77171   0.77496   0.77531   0.77854   0.77978
 Alpha virt. eigenvalues --    0.78310   0.78438   0.78721   0.78818   0.78938
 Alpha virt. eigenvalues --    0.79147   0.79389   0.79589   0.79730   0.80096
 Alpha virt. eigenvalues --    0.80115   0.80507   0.80566   0.80605   0.81224
 Alpha virt. eigenvalues --    0.81268   0.81491   0.81615   0.81712   0.81828
 Alpha virt. eigenvalues --    0.82176   0.82294   0.82612   0.82866   0.83020
 Alpha virt. eigenvalues --    0.83153   0.83336   0.83344   0.83850   0.84034
 Alpha virt. eigenvalues --    0.84321   0.84468   0.84690   0.84910   0.85186
 Alpha virt. eigenvalues --    0.85252   0.85725   0.85812   0.85918   0.86198
 Alpha virt. eigenvalues --    0.86383   0.86505   0.86814   0.86993   0.87256
 Alpha virt. eigenvalues --    0.87421   0.87722   0.88069   0.88352   0.88539
 Alpha virt. eigenvalues --    0.88654   0.88841   0.88973   0.89358   0.89475
 Alpha virt. eigenvalues --    0.89691   0.90157   0.90380   0.90855   0.91055
 Alpha virt. eigenvalues --    0.91494   0.92067   0.92410   0.92795   0.93042
 Alpha virt. eigenvalues --    0.93157   0.93401   0.93668   0.93981   0.94278
 Alpha virt. eigenvalues --    0.94507   0.94789   0.95032   0.95325   0.95718
 Alpha virt. eigenvalues --    0.96017   0.96202   0.96425   0.96758   0.96833
 Alpha virt. eigenvalues --    0.97177   0.97785   0.98017   0.98378   0.98725
 Alpha virt. eigenvalues --    0.98875   0.99163   0.99554   0.99917   1.00553
 Alpha virt. eigenvalues --    1.00929   1.01137   1.01333   1.01889   1.02519
 Alpha virt. eigenvalues --    1.02815   1.03111   1.03506   1.03704   1.03977
 Alpha virt. eigenvalues --    1.04194   1.04554   1.04676   1.04748   1.05065
 Alpha virt. eigenvalues --    1.05372   1.06103   1.06133   1.06282   1.06622
 Alpha virt. eigenvalues --    1.07236   1.07447   1.07728   1.07747   1.08350
 Alpha virt. eigenvalues --    1.08867   1.09095   1.09392   1.09979   1.10148
 Alpha virt. eigenvalues --    1.10306   1.10633   1.11021   1.11094   1.11530
 Alpha virt. eigenvalues --    1.11704   1.12127   1.12587   1.13118   1.13216
 Alpha virt. eigenvalues --    1.13630   1.13845   1.14316   1.14615   1.15029
 Alpha virt. eigenvalues --    1.15378   1.15635   1.15884   1.16091   1.16437
 Alpha virt. eigenvalues --    1.16617   1.16838   1.17261   1.17772   1.18331
 Alpha virt. eigenvalues --    1.18632   1.18739   1.19192   1.19361   1.19977
 Alpha virt. eigenvalues --    1.20336   1.20378   1.21191   1.21729   1.21834
 Alpha virt. eigenvalues --    1.22419   1.22819   1.23327   1.23440   1.23574
 Alpha virt. eigenvalues --    1.23774   1.24123   1.24333   1.24714   1.25097
 Alpha virt. eigenvalues --    1.25491   1.25735   1.25938   1.26024   1.26150
 Alpha virt. eigenvalues --    1.26670   1.26904   1.27038   1.27313   1.28229
 Alpha virt. eigenvalues --    1.28350   1.29027   1.29667   1.30005   1.30246
 Alpha virt. eigenvalues --    1.30536   1.30542   1.31108   1.31455   1.31565
 Alpha virt. eigenvalues --    1.32104   1.32313   1.32512   1.33161   1.33960
 Alpha virt. eigenvalues --    1.34170   1.34648   1.35037   1.35502   1.35976
 Alpha virt. eigenvalues --    1.36469   1.36709   1.36818   1.37401   1.37541
 Alpha virt. eigenvalues --    1.38134   1.38720   1.39416   1.39805   1.40238
 Alpha virt. eigenvalues --    1.40558   1.40990   1.41087   1.41259   1.41583
 Alpha virt. eigenvalues --    1.41933   1.42471   1.42795   1.42821   1.43226
 Alpha virt. eigenvalues --    1.43479   1.43788   1.44203   1.44400   1.44446
 Alpha virt. eigenvalues --    1.44558   1.44755   1.45275   1.45570   1.46152
 Alpha virt. eigenvalues --    1.46418   1.46488   1.46719   1.46862   1.46905
 Alpha virt. eigenvalues --    1.47050   1.47408   1.47509   1.47688   1.47721
 Alpha virt. eigenvalues --    1.47854   1.48039   1.48095   1.48468   1.48688
 Alpha virt. eigenvalues --    1.49142   1.49267   1.49470   1.49535   1.50013
 Alpha virt. eigenvalues --    1.50779   1.50937   1.51339   1.51417   1.51537
 Alpha virt. eigenvalues --    1.52243   1.52405   1.52518   1.52753   1.52816
 Alpha virt. eigenvalues --    1.53072   1.53127   1.53340   1.53489   1.53835
 Alpha virt. eigenvalues --    1.54419   1.54757   1.54995   1.55568   1.55631
 Alpha virt. eigenvalues --    1.55648   1.55828   1.56405   1.56966   1.57318
 Alpha virt. eigenvalues --    1.57712   1.58130   1.58377   1.58660   1.59000
 Alpha virt. eigenvalues --    1.59406   1.59956   1.60385   1.60593   1.60908
 Alpha virt. eigenvalues --    1.61188   1.61701   1.61728   1.62079   1.62169
 Alpha virt. eigenvalues --    1.62776   1.63288   1.63569   1.63751   1.64073
 Alpha virt. eigenvalues --    1.64877   1.65214   1.65267   1.65600   1.65803
 Alpha virt. eigenvalues --    1.65865   1.66203   1.66715   1.67013   1.67409
 Alpha virt. eigenvalues --    1.68071   1.68806   1.69111   1.69387   1.69504
 Alpha virt. eigenvalues --    1.69765   1.70301   1.70786   1.70881   1.71384
 Alpha virt. eigenvalues --    1.71717   1.71871   1.72316   1.73027   1.73296
 Alpha virt. eigenvalues --    1.73682   1.74192   1.75197   1.75859   1.76616
 Alpha virt. eigenvalues --    1.76990   1.77315   1.77710   1.77910   1.78166
 Alpha virt. eigenvalues --    1.78767   1.78976   1.79427   1.79442   1.79988
 Alpha virt. eigenvalues --    1.80132   1.80260   1.80745   1.81391   1.81601
 Alpha virt. eigenvalues --    1.81785   1.81977   1.82370   1.82469   1.83030
 Alpha virt. eigenvalues --    1.83243   1.83474   1.83777   1.83811   1.84229
 Alpha virt. eigenvalues --    1.84649   1.84724   1.85419   1.85605   1.85991
 Alpha virt. eigenvalues --    1.86093   1.86209   1.86617   1.86743   1.87195
 Alpha virt. eigenvalues --    1.87427   1.87762   1.87909   1.88068   1.88147
 Alpha virt. eigenvalues --    1.88337   1.88831   1.89023   1.89262   1.89334
 Alpha virt. eigenvalues --    1.89918   1.90003   1.90329   1.90382   1.90458
 Alpha virt. eigenvalues --    1.90482   1.91642   1.91879   1.92153   1.92551
 Alpha virt. eigenvalues --    1.92617   1.93093   1.93190   1.93377   1.93505
 Alpha virt. eigenvalues --    1.94061   1.94144   1.94839   1.95044   1.95342
 Alpha virt. eigenvalues --    1.95402   1.95956   1.96173   1.96435   1.97273
 Alpha virt. eigenvalues --    1.97573   1.98002   1.98228   1.98994   1.99059
 Alpha virt. eigenvalues --    1.99357   1.99983   2.00026   2.00599   2.00837
 Alpha virt. eigenvalues --    2.00911   2.01400   2.01999   2.02293   2.03490
 Alpha virt. eigenvalues --    2.03691   2.03752   2.03773   2.04131   2.04428
 Alpha virt. eigenvalues --    2.04712   2.05476   2.06069   2.06209   2.07014
 Alpha virt. eigenvalues --    2.07367   2.07624   2.07882   2.07997   2.08591
 Alpha virt. eigenvalues --    2.09086   2.09318   2.09653   2.09969   2.10207
 Alpha virt. eigenvalues --    2.10397   2.10677   2.11283   2.11737   2.12059
 Alpha virt. eigenvalues --    2.12221   2.12806   2.13197   2.14049   2.14555
 Alpha virt. eigenvalues --    2.15015   2.15083   2.15371   2.15380   2.16303
 Alpha virt. eigenvalues --    2.16949   2.17705   2.17789   2.17857   2.18226
 Alpha virt. eigenvalues --    2.18747   2.18974   2.19985   2.20233   2.20551
 Alpha virt. eigenvalues --    2.20836   2.21147   2.22079   2.22198   2.23142
 Alpha virt. eigenvalues --    2.23341   2.23603   2.23775   2.24490   2.24843
 Alpha virt. eigenvalues --    2.25133   2.25857   2.26155   2.26397   2.27155
 Alpha virt. eigenvalues --    2.27491   2.28074   2.28628   2.29063   2.29301
 Alpha virt. eigenvalues --    2.29818   2.30219   2.30327   2.30953   2.31376
 Alpha virt. eigenvalues --    2.31395   2.32141   2.32763   2.33175   2.33248
 Alpha virt. eigenvalues --    2.33280   2.33483   2.33797   2.34348   2.34483
 Alpha virt. eigenvalues --    2.34827   2.35208   2.35445   2.36203   2.36594
 Alpha virt. eigenvalues --    2.36887   2.37451   2.37857   2.37972   2.38188
 Alpha virt. eigenvalues --    2.39323   2.39455   2.40708   2.40735   2.41064
 Alpha virt. eigenvalues --    2.41196   2.41721   2.41757   2.42114   2.42387
 Alpha virt. eigenvalues --    2.42812   2.43064   2.43714   2.44100   2.44166
 Alpha virt. eigenvalues --    2.44448   2.44752   2.45388   2.45594   2.45832
 Alpha virt. eigenvalues --    2.46279   2.46999   2.47492   2.48134   2.48592
 Alpha virt. eigenvalues --    2.48799   2.49416   2.50193   2.50284   2.50407
 Alpha virt. eigenvalues --    2.50817   2.51602   2.52472   2.53064   2.53188
 Alpha virt. eigenvalues --    2.53472   2.54328   2.54360   2.55551   2.56351
 Alpha virt. eigenvalues --    2.56955   2.57634   2.57983   2.58291   2.58450
 Alpha virt. eigenvalues --    2.59264   2.59457   2.60104   2.60127   2.60387
 Alpha virt. eigenvalues --    2.61246   2.61641   2.61830   2.61943   2.62468
 Alpha virt. eigenvalues --    2.62735   2.62956   2.63180   2.64376   2.64589
 Alpha virt. eigenvalues --    2.65490   2.65648   2.67154   2.67635   2.67816
 Alpha virt. eigenvalues --    2.67973   2.68153   2.68392   2.68972   2.69342
 Alpha virt. eigenvalues --    2.69379   2.69689   2.69885   2.70080   2.70653
 Alpha virt. eigenvalues --    2.70899   2.71058   2.71098   2.71478   2.71731
 Alpha virt. eigenvalues --    2.72240   2.72445   2.73192   2.74741   2.75157
 Alpha virt. eigenvalues --    2.76296   2.76522   2.77123   2.77237   2.77533
 Alpha virt. eigenvalues --    2.77723   2.78052   2.78530   2.79625   2.79665
 Alpha virt. eigenvalues --    2.80462   2.80685   2.81455   2.81581   2.82341
 Alpha virt. eigenvalues --    2.82763   2.83882   2.84057   2.84181   2.85222
 Alpha virt. eigenvalues --    2.86664   2.87063   2.87665   2.89070   2.91003
 Alpha virt. eigenvalues --    2.92168   2.92555   2.93310   2.93497   2.94474
 Alpha virt. eigenvalues --    2.94531   2.94745   2.95352   2.95842   2.96090
 Alpha virt. eigenvalues --    2.97011   2.97637   2.97998   2.98995   2.99161
 Alpha virt. eigenvalues --    2.99460   3.00137   3.00644   3.01220   3.02058
 Alpha virt. eigenvalues --    3.02091   3.02424   3.02925   3.02980   3.03354
 Alpha virt. eigenvalues --    3.04351   3.04596   3.04689   3.05099   3.05417
 Alpha virt. eigenvalues --    3.06048   3.06861   3.07501   3.07722   3.08110
 Alpha virt. eigenvalues --    3.08599   3.09175   3.09478   3.10177   3.10823
 Alpha virt. eigenvalues --    3.10981   3.11067   3.11521   3.11633   3.12146
 Alpha virt. eigenvalues --    3.12326   3.12896   3.13366   3.13601   3.13774
 Alpha virt. eigenvalues --    3.13956   3.14013   3.14086   3.15184   3.15348
 Alpha virt. eigenvalues --    3.15914   3.16132   3.16705   3.16780   3.17458
 Alpha virt. eigenvalues --    3.17539   3.17823   3.18687   3.18750   3.18975
 Alpha virt. eigenvalues --    3.19048   3.19186   3.19977   3.20504   3.20578
 Alpha virt. eigenvalues --    3.20881   3.21138   3.22331   3.22754   3.23066
 Alpha virt. eigenvalues --    3.23573   3.23913   3.24225   3.24715   3.25788
 Alpha virt. eigenvalues --    3.26117   3.26622   3.26680   3.27414   3.27498
 Alpha virt. eigenvalues --    3.27902   3.28301   3.28613   3.28720   3.29018
 Alpha virt. eigenvalues --    3.29261   3.29363   3.29664   3.29949   3.30313
 Alpha virt. eigenvalues --    3.30644   3.30736   3.30788   3.31174   3.31639
 Alpha virt. eigenvalues --    3.31699   3.31805   3.31896   3.32076   3.32486
 Alpha virt. eigenvalues --    3.33328   3.33808   3.33876   3.35207   3.35807
 Alpha virt. eigenvalues --    3.36342   3.36489   3.36821   3.37335   3.37365
 Alpha virt. eigenvalues --    3.37665   3.38432   3.39492   3.39807   3.40308
 Alpha virt. eigenvalues --    3.40607   3.40946   3.41732   3.43148   3.43660
 Alpha virt. eigenvalues --    3.44001   3.44316   3.44391   3.44599   3.45346
 Alpha virt. eigenvalues --    3.46053   3.46598   3.48964   3.50176   3.50546
 Alpha virt. eigenvalues --    3.50842   3.51201   3.51918   3.52393   3.53282
 Alpha virt. eigenvalues --    3.53801   3.54410   3.54527   3.54973   3.55628
 Alpha virt. eigenvalues --    3.55828   3.56461   3.57324   3.57930   3.58552
 Alpha virt. eigenvalues --    3.58955   3.59794   3.60221   3.60638   3.62105
 Alpha virt. eigenvalues --    3.63678   3.70009   3.70315   3.74111   3.75229
 Alpha virt. eigenvalues --    3.79439   3.79693   3.80012   3.80372   3.80972
 Alpha virt. eigenvalues --    3.81157   3.82235   3.83008   3.84192   3.84572
 Alpha virt. eigenvalues --    3.86986   3.89086   3.89602   3.89797   3.90297
 Alpha virt. eigenvalues --    3.93162   3.93560   3.95545   3.96488   3.96937
 Alpha virt. eigenvalues --    4.10203   4.11170   4.12826   4.13171   4.13837
 Alpha virt. eigenvalues --    4.16671   4.17019   4.18122   4.20263   4.22990
 Alpha virt. eigenvalues --    4.23600   4.32798   4.33791   4.43366   4.44632
 Alpha virt. eigenvalues --    4.51651   4.52550   4.53361   4.54013   4.61043
 Alpha virt. eigenvalues --    4.62207   4.62769   4.64000   4.65203   4.66918
 Alpha virt. eigenvalues --    4.67450   4.67807   4.69324   4.70643   4.72142
 Alpha virt. eigenvalues --    4.72289   4.72753   4.73506   4.74870   4.77054
 Alpha virt. eigenvalues --    4.78539   4.79166   4.84084   4.85265   4.86333
 Alpha virt. eigenvalues --   23.08745  23.15142  23.15882  23.30330  23.30825
 Alpha virt. eigenvalues --   23.45517  23.46089  23.49154  23.49466  23.52483
 Alpha virt. eigenvalues --   23.52884  23.54479  23.56817  23.57450  23.60499
 Alpha virt. eigenvalues --   23.60955  23.72090  23.74173  23.74820  23.76010
 Alpha virt. eigenvalues --   23.76149  23.77276  23.77751  23.81017  23.84739
 Alpha virt. eigenvalues --   23.86037  23.86830  23.87458  23.87638  23.87938
 Alpha virt. eigenvalues --   23.88420  23.89332  23.90214  23.91522  23.91564
 Alpha virt. eigenvalues --   23.91889  23.93192  23.94676  23.95440  23.95797
 Alpha virt. eigenvalues --   23.96167  23.96516  23.96557  23.97327  23.97448
 Alpha virt. eigenvalues --   23.97841  23.97946  23.98310  23.99423  24.00039
 Alpha virt. eigenvalues --   24.00184  24.01112  24.01209  24.01641  24.01874
 Alpha virt. eigenvalues --   24.02206  24.02255  24.02457  24.02482  24.03119
 Alpha virt. eigenvalues --   24.04025  24.04215  24.05447  24.05673  24.06327
 Alpha virt. eigenvalues --   24.06590  24.08647  24.08796  24.09635  24.09917
 Alpha virt. eigenvalues --   24.10520  24.10658  24.11397  24.11778  24.12155
 Alpha virt. eigenvalues --   24.12273  24.12635  24.12779  24.16525  24.16535
          Condensed to atoms (all electrons):
 Mulliken charges:
               1
     1  C    0.043766
     2  C    0.022672
     3  C   -0.201667
     4  C   -0.229945
     5  C   -0.013170
     6  C    0.006486
     7  C   -0.004434
     8  C    0.036368
     9  C   -0.206088
    10  C   -0.181652
    11  C   -0.038183
    12  C   -0.000491
    13  C   -0.014052
    14  C   -0.014342
    15  C   -0.181479
    16  C   -0.206621
    17  C    0.000201
    18  C   -0.038125
    19  C    0.039177
    20  C   -0.003283
    21  C   -0.234922
    22  C   -0.202669
    23  C    0.008063
    24  C   -0.010621
    25  C    0.021001
    26  C    0.045953
    27  C   -0.001036
    28  C   -0.000444
    29  C    0.005606
    30  C   -0.209193
    31  C   -0.211333
    32  C    0.036866
    33  C   -0.219002
    34  C   -0.206044
    35  C   -0.023404
    36  C    0.022248
    37  C   -0.205433
    38  C   -0.223464
    39  C    0.034083
    40  C   -0.007930
    41  C    0.008909
    42  C    0.034090
    43  C   -0.006194
    44  C    0.008542
    45  C   -0.206297
    46  C   -0.218751
    47  C    0.037254
    48  C    0.005780
    49  C   -0.210168
    50  C   -0.210730
    51  C    0.033558
    52  C   -0.228704
    53  C   -0.250361
    54  C    0.015719
    55  C    0.028663
    56  C   -0.231371
    57  C   -0.197030
    58  C    0.013844
    59  C    0.030607
    60  C   -0.227262
    61  C   -0.203932
    62  C    0.020950
    63  C    0.019075
    64  C   -0.205194
    65  C   -0.226168
    66  C    0.028897
    67  C    0.015878
    68  C   -0.196186
    69  C   -0.232321
    70  C    0.030478
    71  C    0.014185
    72  C    0.001901
    73  C   -0.000723
    74  C    0.033232
    75  C    0.023495
    76  C   -0.206007
    77  C   -0.224244
    78  C   -0.023921
    79  C   -0.227465
    80  C   -0.253816
    81  H    0.193469
    82  H    0.206399
    83  H    0.201585
    84  H    0.210398
    85  H    0.209542
    86  H    0.200877
    87  H    0.206739
    88  H    0.193771
    89  H    0.193316
    90  H    0.191232
    91  H    0.198780
    92  H    0.190911
    93  H    0.188307
    94  H    0.200964
    95  H    0.190950
    96  H    0.198412
    97  H    0.193662
    98  H    0.191107
    99  H    0.205352
   100  H    0.204070
   101  H    0.200448
   102  H    0.194355
   103  H    0.199178
   104  H    0.195332
   105  H    0.195333
   106  H    0.198813
   107  H    0.194611
   108  H    0.200673
   109  H    0.188053
   110  H    0.201177
   111  H    0.205591
   112  H    0.204915
 Sum of Mulliken charges =  -0.00000
 Mulliken charges with hydrogens summed into heavy atoms:
               1
     1  C    0.043766
     2  C    0.022672
     3  C   -0.008199
     4  C   -0.023546
     5  C   -0.013170
     6  C    0.006486
     7  C   -0.004434
     8  C    0.036368
     9  C   -0.004503
    10  C    0.028745
    11  C   -0.038183
    12  C   -0.000491
    13  C   -0.014052
    14  C   -0.014342
    15  C    0.028063
    16  C   -0.005744
    17  C    0.000201
    18  C   -0.038125
    19  C    0.039177
    20  C   -0.003283
    21  C   -0.028183
    22  C   -0.008898
    23  C    0.008063
    24  C   -0.010621
    25  C    0.021001
    26  C    0.045953
    27  C   -0.001036
    28  C   -0.000444
    29  C    0.005606
    30  C   -0.015877
    31  C   -0.020101
    32  C    0.036866
    33  C   -0.020222
    34  C   -0.015133
    35  C   -0.023404
    36  C    0.022248
    37  C   -0.017126
    38  C   -0.022500
    39  C    0.034083
    40  C   -0.007930
    41  C    0.008909
    42  C    0.034090
    43  C   -0.006194
    44  C    0.008542
    45  C   -0.015347
    46  C   -0.020339
    47  C    0.037254
    48  C    0.005780
    49  C   -0.016506
    50  C   -0.019623
    51  C    0.033558
    52  C   -0.023352
    53  C   -0.046290
    54  C    0.015719
    55  C    0.028663
    56  C   -0.030923
    57  C   -0.002675
    58  C    0.013844
    59  C    0.030607
    60  C   -0.028084
    61  C   -0.008600
    62  C    0.020950
    63  C    0.019075
    64  C   -0.009861
    65  C   -0.027354
    66  C    0.028897
    67  C    0.015878
    68  C   -0.001575
    69  C   -0.031648
    70  C    0.030478
    71  C    0.014185
    72  C    0.001901
    73  C   -0.000723
    74  C    0.033232
    75  C    0.023495
    76  C   -0.017954
    77  C   -0.023067
    78  C   -0.023921
    79  C   -0.021875
    80  C   -0.048901
 Electronic spatial extent (au):  <R**2>=          58028.6118
 Charge=             -0.0000 electrons
 Dipole moment (field-independent basis, Debye):
    X=              0.0297    Y=              0.1014    Z=              0.0108  Tot=              0.1062
 Quadrupole moment (field-independent basis, Debye-Ang):
   XX=           -462.1144   YY=           -452.0065   ZZ=           -408.5808
   XY=              5.4503   XZ=            -11.9042   YZ=             -0.0514
 Traceless Quadrupole moment (field-independent basis, Debye-Ang):
   XX=            -21.2139   YY=            -11.1059   ZZ=             32.3198
   XY=              5.4503   XZ=            -11.9042   YZ=             -0.0514
 Octapole moment (field-independent basis, Debye-Ang**2):
  XXX=            -39.2730  YYY=            178.3668  ZZZ=            -22.5062  XYY=             59.3423
  XXY=            -19.3226  XXZ=             92.4830  XZZ=              1.8934  YZZ=            -74.3907
  YYZ=            -63.2437  XYZ=            124.9825
 Hexadecapole moment (field-independent basis, Debye-Ang**3):
 XXXX=         -48486.6775 YYYY=         -30091.1734 ZZZZ=          -7313.8883 XXXY=           3808.3257
 XXXZ=           -762.3377 YYYX=           3729.9039 YYYZ=          -1108.7321 ZZZX=            -48.2857
 ZZZY=          -1018.4954 XXYY=         -13156.5752 XXZZ=          -8343.0374 YYZZ=          -6079.4207
 XXYZ=           -142.2463 YYXZ=             -7.8932 ZZXY=            928.8609
 N-N= 1.222495069902D+04 E-N=-3.156995035909D+04  KE= 3.055107392392D+03
 1\1\GINC-CU08\SP\RB3LYP\6-311G(d)\C80H32\WANG\26-Apr-2025\0\\# B3LYP/6
 -311G* NOSYMM\\From 8mobius_opt-cont1.out\\0,1\C,0,5.922144,-2.729479,
 -0.857187\C,0,6.214706,-1.386989,-1.195639\C,0,6.015687,-0.968894,-2.5
 64907\C,0,5.257144,0.142161,-2.780429\C,0,6.17499,-0.390389,-0.178457\
 C,0,5.718655,0.938878,-0.494016\C,0,4.911489,0.988042,-1.677936\C,0,3.
 640087,1.568384,-1.437766\C,0,2.42881,0.894146,-1.790634\C,0,1.301812,
 1.096372,-1.026014\C,0,3.572797,2.624004,-0.488531\C,0,2.306576,3.1376
 87,-0.114084\C,0,1.228374,2.201777,-0.132257\C,0,0.189762,2.489432,0.7
 95216\C,0,-0.595546,1.555536,1.528228\C,0,-1.678253,1.982544,2.262491\
 C,0,-0.099001,3.881876,0.931992\C,0,-1.447963,4.195606,1.237336\C,0,-2
 .21832,3.283858,2.008748\C,0,-3.609192,3.533135,2.12397\C,0,-4.499176,
 2.903656,3.054135\C,0,-5.710191,2.453273,2.624685\C,0,-4.158492,4.1123
 3,0.933294\C,0,-5.244232,3.343359,0.378615\C,0,-5.940471,2.408048,1.19
 7981\C,0,-6.396441,1.196591,0.626275\C,0,-5.911789,0.874966,-0.67697\C
 ,0,-5.495231,-0.482707,-0.921683\C,0,-4.734153,-0.792894,-2.086337\C,0
 ,-4.686,0.211757,-3.111393\C,0,-5.063467,1.507185,-2.866925\C,0,-3.894
 889,-1.957445,-2.078281\C,0,-3.055558,-2.338739,-3.172645\C,0,-2.01284
 2,-3.211879,-3.012459\C,0,-3.727152,-2.673054,-0.851439\C,0,-4.650493,
 -2.480485,0.219552\C,0,-4.423097,-3.199256,1.438957\C,0,-3.238314,-3.8
 36395,1.674181\C,0,-2.214087,-3.901109,0.678071\C,0,-2.549366,-3.47175
 3,-0.643859\C,0,-1.652688,-3.722681,-1.724132\C,0,-0.38727,-4.330883,-
 1.458782\C,0,0.067993,-4.40781,-0.105693\C,0,-0.854576,-4.234299,0.967
 961\C,0,-0.327789,-4.259843,2.299306\C,0,1.020358,-4.231306,2.538881\C
 ,0,1.976605,-4.258767,1.474454\C,0,3.342355,-3.840169,1.619986\C,0,3.8
 52683,-3.191425,2.795762\C,0,4.923629,-2.336671,2.73772\C,0,-5.6129,-1
 .44028,0.132145\C,0,-6.545906,-1.15395,1.188772\C,0,-6.935561,0.126591
 ,1.425294\C,0,-5.52649,1.918177,-1.572022\C,0,-5.291306,3.237879,-1.04
 4328\C,0,-4.730019,4.336275,-1.783576\C,0,-3.8721,5.238224,-1.194701\C
 ,0,-3.401265,5.01787,0.141756\C,0,-2.031658,5.295491,0.542973\C,0,-1.1
 32952,6.304378,0.093852\C,0,0.247349,6.164385,0.232778\C,0,0.816621,4.
 904106,0.561273\C,0,2.192846,4.444392,0.434295\C,0,3.403485,5.046822,0
 .870152\C,0,4.587415,4.310106,0.916902\C,0,4.701218,3.046408,0.272836\
 C,0,5.642677,1.959513,0.491713\C,0,6.156847,1.628125,1.787987\C,0,6.32
 8879,0.309061,2.14764\C,0,6.153997,-0.758442,1.200943\C,0,5.57871,-2.0
 47098,1.493642\C,0,5.318455,-2.947741,0.417563\C,0,4.188265,-3.840758,
 0.472677\C,0,3.768625,-4.495795,-0.725686\C,0,2.384906,-4.746457,-0.91
 7195\C,0,1.834875,-4.98743,-2.219414\C,0,0.518812,-4.741636,-2.486507\
 C,0,1.47669,-4.522373,0.160747\C,0,4.732622,-4.620508,-1.787243\C,0,5.
 783962,-3.761921,-1.851898\H,0,6.246064,-1.64134,-3.38398\H,0,4.861487
 ,0.36349,-3.768102\H,0,2.463119,0.082865,-2.511131\H,0,0.442346,0.4409
 8,-1.131819\H,0,-0.310498,0.507557,1.529472\H,0,-2.250453,1.27601,2.85
 553\H,0,-4.17226,2.735489,4.076869\H,0,-6.37334,1.932328,3.3066\H,0,-4
 .232423,-0.022493,-4.069069\H,0,-4.886139,2.25704,-3.631987\H,0,-3.224
 116,-1.900696,-4.151342\H,0,-1.383351,-3.433135,-3.86794\H,0,-5.15571,
 -3.142367,2.236648\H,0,-3.065714,-4.288244,2.645845\H,0,-1.007321,-4.1
 91336,3.142308\H,0,1.366521,-4.14657,3.564143\H,0,3.313338,-3.281525,3
 .733222\H,0,5.189696,-1.769483,3.624682\H,0,-6.88055,-1.951704,1.84457
 3\H,0,-7.568672,0.35565,2.27741\H,0,-4.912883,4.409184,-2.851919\H,0,-
 3.402078,6.00161,-1.808889\H,0,-1.52766,7.207898,-0.363384\H,0,0.89631
 5,6.984498,-0.063053\H,0,3.379817,6.04139,1.307777\H,0,5.443794,4.7210
 98,1.445022\H,0,6.220695,2.398732,2.551582\H,0,6.517723,0.071198,3.190
 738\H,0,2.49475,-5.258148,-3.036397\H,0,0.158458,-4.842714,-3.505335\H
 ,0,4.574111,-5.344864,-2.580086\H,0,6.458833,-3.785022,-2.7027\\Versio
 n=ES64L-G16RevB.01\HF=-3068.3435152\RMSD=6.183e-09\Dipole=0.0116919,0.
 0398964,0.0042524\Quadrupole=-15.7719776,-8.2569791,24.0289568,4.05219
 67,-8.8504672,-0.0381825\PG=C01 [X(C80H32)]\\@


 A CHEMICAL PHYSICIST MAKES PRECISE MEASUREMENTS ON IMPURE COMPOUNDS.
 A THEORETICAL PHYSICAL CHEMIST MAKES IMPRECISE
     MEASUREMENTS ON PURE COMPOUNDS.
 AN EXPERIMENTAL PHYSICAL CHEMIST MAKES IMPRECISE
     MEASUREMENTS ON IMPURE COMPOUNDS.
 Job cpu time:       0 days  3 hours  7 minutes 25.0 seconds.
 Elapsed time:       0 days  0 hours  6 minutes 43.6 seconds.
 File lengths (MBytes):  RWF=   1269 Int=      0 D2E=      0 Chk=    137 Scr=      1
 Normal termination of Gaussian 16 at Sat Apr 26 17:08:41 2025.
