 Entering Gaussian System, Link 0=g16
 Initial command:
 /opt/software/g16/l1.exe "/tmp/2x2_1_1_1_1_CNB_sgp-12415.tmp/Gau-67568.inp" -scrdir="/tmp/2x2_1_1_1_1_CNB_sgp-12415.tmp/"
 Entering Link 1 = /opt/software/g16/l1.exe PID=     67570.
  
 Copyright (c) 1988-2017, Gaussian, Inc.  All Rights Reserved.
  
 This is part of the Gaussian(R) 16 program.  It is based on
 the Gaussian(R) 09 system (copyright 2009, Gaussian, Inc.),
 the Gaussian(R) 03 system (copyright 2003, Gaussian, Inc.),
 the Gaussian(R) 98 system (copyright 1998, Gaussian, Inc.),
 the Gaussian(R) 94 system (copyright 1995, Gaussian, Inc.),
 the Gaussian 92(TM) system (copyright 1992, Gaussian, Inc.),
 the Gaussian 90(TM) system (copyright 1990, Gaussian, Inc.),
 the Gaussian 88(TM) system (copyright 1988, Gaussian, Inc.),
 the Gaussian 86(TM) system (copyright 1986, Carnegie Mellon
 University), and the Gaussian 82(TM) system (copyright 1983,
 Carnegie Mellon University). Gaussian is a federally registered
 trademark of Gaussian, Inc.
  
 This software contains proprietary and confidential information,
 including trade secrets, belonging to Gaussian, Inc.
  
 This software is provided under written license and may be
 used, copied, transmitted, or stored only in accord with that
 written license.
  
 The following legend is applicable only to US Government
 contracts under FAR:
  
                    RESTRICTED RIGHTS LEGEND
  
 Use, reproduction and disclosure by the US Government is
 subject to restrictions as set forth in subparagraphs (a)
 and (c) of the Commercial Computer Software - Restricted
 Rights clause in FAR 52.227-19.
  
 Gaussian, Inc.
 340 Quinnipiac St., Bldg. 40, Wallingford CT 06492
  
  
 ---------------------------------------------------------------
 Warning -- This program may not be used in any manner that
 competes with the business of Gaussian, Inc. or will provide
 assistance to any competitor of Gaussian, Inc.  The licensee
 of this program is prohibited from giving any competitor of
 Gaussian, Inc. access to this program.  By using this program,
 the user acknowledges that Gaussian, Inc. is engaged in the
 business of creating and licensing software in the field of
 computational chemistry and represents and warrants to the
 licensee that it is not a competitor of Gaussian, Inc. and that
 it will not use this program in any manner prohibited above.
 ---------------------------------------------------------------
  

 Cite this work as:
 Gaussian 16, Revision B.01,
 M. J. Frisch, G. W. Trucks, H. B. Schlegel, G. E. Scuseria, 
 M. A. Robb, J. R. Cheeseman, G. Scalmani, V. Barone, 
 G. A. Petersson, H. Nakatsuji, X. Li, M. Caricato, A. V. Marenich, 
 J. Bloino, B. G. Janesko, R. Gomperts, B. Mennucci, H. P. Hratchian, 
 J. V. Ortiz, A. F. Izmaylov, J. L. Sonnenberg, D. Williams-Young, 
 F. Ding, F. Lipparini, F. Egidi, J. Goings, B. Peng, A. Petrone, 
 T. Henderson, D. Ranasinghe, V. G. Zakrzewski, J. Gao, N. Rega, 
 G. Zheng, W. Liang, M. Hada, M. Ehara, K. Toyota, R. Fukuda, 
 J. Hasegawa, M. Ishida, T. Nakajima, Y. Honda, O. Kitao, H. Nakai, 
 T. Vreven, K. Throssell, J. A. Montgomery, Jr., J. E. Peralta, 
 F. Ogliaro, M. J. Bearpark, J. J. Heyd, E. N. Brothers, K. N. Kudin, 
 V. N. Staroverov, T. A. Keith, R. Kobayashi, J. Normand, 
 K. Raghavachari, A. P. Rendell, J. C. Burant, S. S. Iyengar, 
 J. Tomasi, M. Cossi, J. M. Millam, M. Klene, C. Adamo, R. Cammi, 
 J. W. Ochterski, R. L. Martin, K. Morokuma, O. Farkas, 
 J. B. Foresman, and D. J. Fox, Gaussian, Inc., Wallingford CT, 2016.
 
 ******************************************
 Gaussian 16:  ES64L-G16RevB.01 20-Dec-2017
                24-May-2025 
 ******************************************
 %nproc=18
 Will use up to   18 processors via shared memory.
 ------------------------------------
 # B3LYP/6-311G* Pop=Hirshfeld NOSYMM
 ------------------------------------
 1/38=1,172=1/1;
 2/12=2,15=1,17=6,18=5,40=1/2;
 3/5=4,6=6,7=1,11=2,25=1,30=1,74=-5/1,2,3;
 4//1;
 5/5=2,38=5/2;
 6/7=2,8=2,9=2,10=2,28=1,79=1/1;
 99/5=1,9=1/99;
 -----------------------------------
 From ../..//2x2_1_1_1_1_CNB_opt.out
 -----------------------------------
 Symbolic Z-matrix:
 Charge =  0 Multiplicity = 1
 6                     3.93898  -1.77356  -0.24534 
 6                     4.00342  -0.80148   0.77832 
 6                     4.45166  -0.08944  -1.92894 
 6                     4.37776  -1.39825  -1.5696 
 6                     4.08304   0.93951  -0.99103 
 6                     4.06919   0.6101    0.40448 
 6                     3.75972   1.64627   1.29924 
 6                     3.50114   2.13665  -1.42994 
 6                     2.82899   2.98343  -0.53485 
 6                     3.10926   2.80759   0.86039 
 6                     2.47667   3.69864   1.79858 
 6                     1.35969   4.38536   1.44037 
 6                     1.63242   3.73571  -0.90752 
 6                     0.79914   4.23874   0.11697 
 6                    -0.26305   3.70885  -2.43087 
 6                     1.09076   3.67443  -2.22761 
 6                    -1.16078   3.80417  -1.32299 
 6                    -0.63047   4.27511  -0.09534 
 6                    -1.54863   4.45648   0.99229 
 6                    -2.75839   3.82438   0.99336 
 6                    -2.44751   3.13171  -1.32182 
 6                    -3.13535   2.9663   -0.09312 
 6                    -3.62787   1.20848  -2.2233 
 6                    -2.88319   2.33928  -2.42844 
 6                    -3.98605   0.80006  -0.90246 
 6                    -3.92162   1.77215   0.12119 
 6                    -4.36043   1.39687   1.44546 
 6                    -4.43431   0.08807   1.80481 
 6                    -4.05185  -0.61152  -0.5286 
 6                    -4.06568  -0.9409    0.86691 
 6                    -3.48379  -2.13803   1.30585 
 6                    -3.74241  -1.64772  -1.42334 
 6                    -3.09195  -2.80904  -0.98447 
 6                    -2.81165  -2.98484   0.41077 
 6                    -1.3424   -4.38682  -1.56443 
 6                    -2.45939  -3.70011  -1.92264 
 6                    -0.78181  -4.24016  -0.24106 
 6                    -1.61506  -3.7371    0.78343 
 6                    -1.07339  -3.67577   2.10351 
 6                     0.28043  -3.71019   2.30676 
 6                     0.64781  -4.27651  -0.02878 
 6                     1.17814  -3.80555   1.19887 
 6                     2.7757   -3.82576  -1.11752 
 6                     1.56594  -4.45786  -1.11642 
 6                     3.1527   -2.96772  -0.03103 
 6                     2.46488  -3.13312   1.19768 
 6                     2.90063  -2.34073   2.30432 
 6                     3.6453   -1.20995   2.09917 
 1                     4.66921   0.1893   -2.9572 
 1                     4.54949  -2.16589  -2.31671 
 1                     3.81942   1.48224   2.371 
 1                     3.39913   2.27858  -2.50166 
 1                     2.83119   3.71868   2.82633 
 1                     0.82878   4.96532   2.18783 
 1                    -0.64824   3.53606  -3.43043 
 1                     1.74371   3.47651  -3.07176 
 1                    -1.24223   5.00687   1.87551 
 1                    -3.38396   3.88789   1.8774 
 1                    -3.83915   0.55866  -3.06661 
 1                    -2.52232   2.55572  -3.42858 
 1                    -4.53219   2.16452   2.19254 
 1                    -4.65189  -0.19067   2.83307 
 1                    -3.3818   -2.27996   2.37758 
 1                    -3.80215  -1.48373  -2.4951 
 1                    -0.81151  -4.96681  -2.31189 
 1                    -2.81393  -3.7202   -2.95038 
 1                    -1.72632  -3.4778    2.94766 
 1                     0.66564  -3.53735   3.3063 
 1                     3.40124  -3.88924  -2.00158 
 1                     1.25951  -5.00821  -1.99966 
 1                     2.53984  -2.55724   3.30446 
 1                     3.85668  -0.56016   2.94249 
 
 Symmetry turned off by external request.
 Stoichiometry    C48H24
 Framework group  C1[X(C48H24)]
 Deg. of freedom   210
 Full point group                 C1      NOp   1
                          Input orientation:                          
 ---------------------------------------------------------------------
 Center     Atomic      Atomic             Coordinates (Angstroms)
 Number     Number       Type             X           Y           Z
 ---------------------------------------------------------------------
      1          6           0        3.938975   -1.773555   -0.245341
      2          6           0        4.003418   -0.801481    0.778322
      3          6           0        4.451655   -0.089444   -1.928942
      4          6           0        4.377758   -1.398251   -1.569602
      5          6           0        4.083040    0.939507   -0.991025
      6          6           0        4.069194    0.610097    0.404481
      7          6           0        3.759719    1.646266    1.299238
      8          6           0        3.501143    2.136649   -1.429940
      9          6           0        2.828992    2.983432   -0.534849
     10          6           0        3.109259    2.807594    0.860394
     11          6           0        2.476672    3.698635    1.798583
     12          6           0        1.359694    4.385356    1.440367
     13          6           0        1.632417    3.735712   -0.907517
     14          6           0        0.799142    4.238739    0.116972
     15          6           0       -0.263047    3.708847   -2.430874
     16          6           0        1.090764    3.674433   -2.227610
     17          6           0       -1.160781    3.804168   -1.322993
     18          6           0       -0.630470    4.275114   -0.095338
     19          6           0       -1.548626    4.456478    0.992289
     20          6           0       -2.758388    3.824384    0.993364
     21          6           0       -2.447505    3.131706   -1.321821
     22          6           0       -3.135354    2.966303   -0.093116
     23          6           0       -3.627865    1.208483   -2.223295
     24          6           0       -2.883188    2.339277   -2.428444
     25          6           0       -3.986046    0.800062   -0.902461
     26          6           0       -3.921619    1.772151    0.121189
     27          6           0       -4.360429    1.396866    1.445456
     28          6           0       -4.434313    0.088068    1.804812
     29          6           0       -4.051849   -0.611522   -0.528602
     30          6           0       -4.065684   -0.940902    0.866913
     31          6           0       -3.483794   -2.138031    1.305850
     32          6           0       -3.742413   -1.647716   -1.423335
     33          6           0       -3.091949   -2.809040   -0.984470
     34          6           0       -2.811651   -2.984839    0.410767
     35          6           0       -1.342395   -4.386819   -1.564433
     36          6           0       -2.459385   -3.700112   -1.922644
     37          6           0       -0.781810   -4.240156   -0.241058
     38          6           0       -1.615064   -3.737099    0.783432
     39          6           0       -1.073387   -3.675771    2.103514
     40          6           0        0.280426   -3.710188    2.306758
     41          6           0        0.647809   -4.276513   -0.028776
     42          6           0        1.178143   -3.805551    1.198867
     43          6           0        2.775700   -3.825764   -1.117517
     44          6           0        1.565935   -4.457863   -1.116422
     45          6           0        3.152701   -2.967715   -0.031034
     46          6           0        2.464875   -3.133122    1.197681
     47          6           0        2.900626   -2.340732    2.304318
     48          6           0        3.645302   -1.209945    2.099170
     49          1           0        4.669214    0.189298   -2.957203
     50          1           0        4.549489   -2.165887   -2.316711
     51          1           0        3.819419    1.482241    2.370999
     52          1           0        3.399134    2.278583   -2.501663
     53          1           0        2.831192    3.718679    2.826332
     54          1           0        0.828782    4.965317    2.187830
     55          1           0       -0.648241    3.536060   -3.430434
     56          1           0        1.743710    3.476511   -3.071758
     57          1           0       -1.242225    5.006872    1.875511
     58          1           0       -3.383963    3.887893    1.877396
     59          1           0       -3.839145    0.558657   -3.066607
     60          1           0       -2.522319    2.555721   -3.428575
     61          1           0       -4.532190    2.164518    2.192541
     62          1           0       -4.651886   -0.190669    2.833072
     63          1           0       -3.381795   -2.279958    2.377575
     64          1           0       -3.802149   -1.483733   -2.495101
     65          1           0       -0.811507   -4.966813   -2.311887
     66          1           0       -2.813931   -3.720195   -2.950383
     67          1           0       -1.726316   -3.477803    2.947664
     68          1           0        0.665636   -3.537351    3.306303
     69          1           0        3.401236   -3.889243   -2.001579
     70          1           0        1.259508   -5.008215   -1.999661
     71          1           0        2.539838   -2.557243    3.304465
     72          1           0        3.856676   -0.560162    2.942494
 ---------------------------------------------------------------------
 Rotational constants (GHZ):           0.0788917           0.0748678           0.0472363
 Standard basis: 6-311G(d) (5D, 7F)
   936 basis functions,  1656 primitive gaussians,   984 cartesian basis functions
   156 alpha electrons      156 beta electrons
       nuclear repulsion energy      5434.5103954144 Hartrees.
 NAtoms=   72 NActive=   72 NUniq=   72 SFac= 1.00D+00 NAtFMM=   60 NAOKFM=T Big=T
 Integral buffers will be    131072 words long.
 Raffenetti 2 integral format.
 Two-electron integral symmetry is turned off.
 One-electron integrals computed using PRISM.
 NBasis=   936 RedAO= T EigKep=  5.63D-05  NBF=   936
 NBsUse=   936 1.00D-06 EigRej= -1.00D+00 NBFU=   936
 ExpMin= 1.03D-01 ExpMax= 4.56D+03 ExpMxC= 6.82D+02 IAcc=3 IRadAn=         5 AccDes= 0.00D+00
 Harris functional with IExCor=  402 and IRadAn=       5 diagonalized for initial guess.
 HarFok:  IExCor=  402 AccDes= 0.00D+00 IRadAn=         5 IDoV= 1 UseB2=F ITyADJ=14
 ICtDFT=  3500011 ScaDFX=  1.000000  1.000000  1.000000  1.000000
 FoFCou: FMM=F IPFlag=           0 FMFlag=      100000 FMFlg1=        2001
         NFxFlg=           0 DoJE=T BraDBF=F KetDBF=T FulRan=T
         wScrn=  0.000000 ICntrl=       500 IOpCl=  0 I1Cent=   200000004 NGrid=           0
         NMat0=    1 NMatS0=      1 NMatT0=    0 NMatD0=    1 NMtDS0=    0 NMtDT0=    0
 Symmetry not used in FoFCou.
 Requested convergence on RMS density matrix=1.00D-08 within 128 cycles.
 Requested convergence on MAX density matrix=1.00D-06.
 Requested convergence on             energy=1.00D-06.
 No special actions if energy rises.
 Integral accuracy reduced to 1.0D-05 until final iterations.
 Initial convergence to 1.0D-05 achieved.  Increase integral accuracy.
 SCF Done:  E(RB3LYP) =  -1843.89406040     A.U. after   14 cycles
            NFock= 14  Conv=0.71D-08     -V/T= 2.0044

 **********************************************************************

            Population analysis using the SCF Density.

 **********************************************************************

 Alpha  occ. eigenvalues --  -10.19427 -10.19427 -10.19426 -10.19426 -10.19414
 Alpha  occ. eigenvalues --  -10.19414 -10.19413 -10.19413 -10.19371 -10.19371
 Alpha  occ. eigenvalues --  -10.19357 -10.19357 -10.19354 -10.19354 -10.19343
 Alpha  occ. eigenvalues --  -10.19343 -10.19308 -10.19308 -10.19299 -10.19299
 Alpha  occ. eigenvalues --  -10.19083 -10.19083 -10.19082 -10.19081 -10.18299
 Alpha  occ. eigenvalues --  -10.18299 -10.18298 -10.18298 -10.18233 -10.18233
 Alpha  occ. eigenvalues --  -10.18233 -10.18233 -10.18229 -10.18229 -10.18228
 Alpha  occ. eigenvalues --  -10.18228 -10.18215 -10.18215 -10.18164 -10.18164
 Alpha  occ. eigenvalues --  -10.18163 -10.18163 -10.18159 -10.18159 -10.18159
 Alpha  occ. eigenvalues --  -10.18159 -10.18150 -10.18150  -0.90479  -0.89881
 Alpha  occ. eigenvalues --   -0.89801  -0.87979  -0.87949  -0.85042  -0.84964
 Alpha  occ. eigenvalues --   -0.82384  -0.82054  -0.81765  -0.80921  -0.80301
 Alpha  occ. eigenvalues --   -0.78978  -0.78908  -0.77034  -0.76785  -0.75309
 Alpha  occ. eigenvalues --   -0.75236  -0.74148  -0.73540  -0.72338  -0.72035
 Alpha  occ. eigenvalues --   -0.71298  -0.70355  -0.66678  -0.64740  -0.64726
 Alpha  occ. eigenvalues --   -0.63721  -0.63676  -0.63236  -0.62684  -0.62014
 Alpha  occ. eigenvalues --   -0.61820  -0.60827  -0.60230  -0.58916  -0.57198
 Alpha  occ. eigenvalues --   -0.55073  -0.54699  -0.54305  -0.53971  -0.53951
 Alpha  occ. eigenvalues --   -0.53623  -0.51463  -0.51233  -0.50883  -0.50779
 Alpha  occ. eigenvalues --   -0.50531  -0.49656  -0.48141  -0.48043  -0.46793
 Alpha  occ. eigenvalues --   -0.46733  -0.46448  -0.46411  -0.45275  -0.44692
 Alpha  occ. eigenvalues --   -0.44502  -0.44330  -0.44197  -0.43428  -0.43176
 Alpha  occ. eigenvalues --   -0.42871  -0.42807  -0.42712  -0.42506  -0.42250
 Alpha  occ. eigenvalues --   -0.42079  -0.42062  -0.41962  -0.41030  -0.40944
 Alpha  occ. eigenvalues --   -0.40862  -0.40604  -0.40173  -0.40172  -0.39974
 Alpha  occ. eigenvalues --   -0.38851  -0.38214  -0.36330  -0.36211  -0.36019
 Alpha  occ. eigenvalues --   -0.35419  -0.34902  -0.34540  -0.33985  -0.33970
 Alpha  occ. eigenvalues --   -0.33311  -0.33034  -0.32847  -0.32686  -0.32596
 Alpha  occ. eigenvalues --   -0.32423  -0.31775  -0.30579  -0.30004  -0.29712
 Alpha  occ. eigenvalues --   -0.28894  -0.27265  -0.26989  -0.24672  -0.24491
 Alpha  occ. eigenvalues --   -0.23224  -0.22830  -0.21913  -0.21522  -0.20399
 Alpha  occ. eigenvalues --   -0.19026
 Alpha virt. eigenvalues --   -0.08228  -0.06139  -0.05476  -0.04826  -0.04751
 Alpha virt. eigenvalues --   -0.03881  -0.03012  -0.02996  -0.01933  -0.00620
 Alpha virt. eigenvalues --    0.00936   0.01579   0.02910   0.03339   0.03788
 Alpha virt. eigenvalues --    0.04506   0.04539   0.04908   0.04932   0.05078
 Alpha virt. eigenvalues --    0.05851   0.06293   0.06437   0.06588   0.06845
 Alpha virt. eigenvalues --    0.07018   0.07103   0.08309   0.08615   0.08804
 Alpha virt. eigenvalues --    0.09088   0.10209   0.10693   0.11994   0.13100
 Alpha virt. eigenvalues --    0.13202   0.13765   0.14138   0.14184   0.14238
 Alpha virt. eigenvalues --    0.14774   0.15162   0.17385   0.17618   0.17834
 Alpha virt. eigenvalues --    0.18592   0.20131   0.21373   0.21589   0.21797
 Alpha virt. eigenvalues --    0.21833   0.21978   0.22910   0.23107   0.23150
 Alpha virt. eigenvalues --    0.23187   0.23382   0.24377   0.24722   0.24956
 Alpha virt. eigenvalues --    0.25560   0.25679   0.25834   0.26159   0.27566
 Alpha virt. eigenvalues --    0.27687   0.28211   0.28579   0.28731   0.29289
 Alpha virt. eigenvalues --    0.29412   0.29823   0.30803   0.31069   0.31316
 Alpha virt. eigenvalues --    0.31661   0.31771   0.31916   0.32861   0.32961
 Alpha virt. eigenvalues --    0.33235   0.33258   0.34370   0.34498   0.35027
 Alpha virt. eigenvalues --    0.35104   0.35803   0.36105   0.36331   0.36648
 Alpha virt. eigenvalues --    0.36754   0.36838   0.36954   0.37245   0.37685
 Alpha virt. eigenvalues --    0.37826   0.38465   0.38773   0.39085   0.39318
 Alpha virt. eigenvalues --    0.39478   0.39478   0.39531   0.39850   0.40144
 Alpha virt. eigenvalues --    0.40424   0.41177   0.41361   0.41933   0.42053
 Alpha virt. eigenvalues --    0.42089   0.42393   0.42439   0.42585   0.42726
 Alpha virt. eigenvalues --    0.43132   0.43193   0.43331   0.43364   0.43594
 Alpha virt. eigenvalues --    0.43723   0.43849   0.43931   0.44046   0.44054
 Alpha virt. eigenvalues --    0.44304   0.44784   0.45233   0.45234   0.45487
 Alpha virt. eigenvalues --    0.45929   0.46041   0.46137   0.46160   0.46784
 Alpha virt. eigenvalues --    0.46851   0.46869   0.46939   0.47352   0.47358
 Alpha virt. eigenvalues --    0.47572   0.47761   0.47798   0.47896   0.48291
 Alpha virt. eigenvalues --    0.48444   0.48527   0.48592   0.48779   0.49395
 Alpha virt. eigenvalues --    0.49472   0.49730   0.49833   0.50032   0.50147
 Alpha virt. eigenvalues --    0.50408   0.50988   0.51205   0.51482   0.52807
 Alpha virt. eigenvalues --    0.53041   0.53693   0.53785   0.54704   0.54934
 Alpha virt. eigenvalues --    0.55023   0.55494   0.55698   0.56207   0.56441
 Alpha virt. eigenvalues --    0.56816   0.57300   0.57664   0.57692   0.58010
 Alpha virt. eigenvalues --    0.58511   0.59281   0.59355   0.59590   0.60120
 Alpha virt. eigenvalues --    0.60319   0.60341   0.60432   0.60639   0.61161
 Alpha virt. eigenvalues --    0.61258   0.61507   0.62020   0.62128   0.62770
 Alpha virt. eigenvalues --    0.62926   0.63087   0.63342   0.63532   0.63798
 Alpha virt. eigenvalues --    0.64050   0.64306   0.65540   0.65577   0.65789
 Alpha virt. eigenvalues --    0.65918   0.65961   0.66508   0.66643   0.66784
 Alpha virt. eigenvalues --    0.67405   0.67875   0.68209   0.68482   0.68594
 Alpha virt. eigenvalues --    0.69069   0.69660   0.69981   0.70798   0.71026
 Alpha virt. eigenvalues --    0.71110   0.72177   0.72213   0.72651   0.72752
 Alpha virt. eigenvalues --    0.72850   0.73288   0.73603   0.73679   0.73760
 Alpha virt. eigenvalues --    0.73865   0.74240   0.74268   0.74940   0.75213
 Alpha virt. eigenvalues --    0.75277   0.75614   0.75718   0.75806   0.76072
 Alpha virt. eigenvalues --    0.76244   0.76491   0.76552   0.76558   0.78139
 Alpha virt. eigenvalues --    0.78375   0.79018   0.79165   0.79492   0.80314
 Alpha virt. eigenvalues --    0.80980   0.81263   0.81718   0.81813   0.81858
 Alpha virt. eigenvalues --    0.82808   0.82889   0.82966   0.83049   0.83642
 Alpha virt. eigenvalues --    0.84112   0.84658   0.84779   0.85697   0.85818
 Alpha virt. eigenvalues --    0.86002   0.86407   0.86622   0.87109   0.87415
 Alpha virt. eigenvalues --    0.88043   0.88080   0.88268   0.89132   0.89422
 Alpha virt. eigenvalues --    0.90298   0.90399   0.90505   0.91177   0.91932
 Alpha virt. eigenvalues --    0.93971   0.94169   0.95509   0.95614   0.96048
 Alpha virt. eigenvalues --    0.96831   0.96914   0.97565   0.98149   0.98650
 Alpha virt. eigenvalues --    0.99393   0.99513   0.99950   1.00334   1.00565
 Alpha virt. eigenvalues --    1.00694   1.01967   1.02536   1.02847   1.03831
 Alpha virt. eigenvalues --    1.03979   1.04149   1.05560   1.05631   1.05648
 Alpha virt. eigenvalues --    1.06018   1.06581   1.07295   1.07583   1.07724
 Alpha virt. eigenvalues --    1.08736   1.08949   1.09099   1.09841   1.10006
 Alpha virt. eigenvalues --    1.10227   1.10781   1.11122   1.11128   1.11797
 Alpha virt. eigenvalues --    1.11982   1.12582   1.12765   1.14027   1.14089
 Alpha virt. eigenvalues --    1.14091   1.14134   1.15734   1.15912   1.16243
 Alpha virt. eigenvalues --    1.16270   1.17213   1.18231   1.18417   1.18868
 Alpha virt. eigenvalues --    1.19548   1.20328   1.21027   1.21106   1.22334
 Alpha virt. eigenvalues --    1.23968   1.24629   1.24743   1.25346   1.26108
 Alpha virt. eigenvalues --    1.26399   1.26798   1.27151   1.27570   1.27623
 Alpha virt. eigenvalues --    1.28326   1.28354   1.29863   1.31467   1.31734
 Alpha virt. eigenvalues --    1.32139   1.33164   1.34025   1.35857   1.36469
 Alpha virt. eigenvalues --    1.36590   1.36770   1.37688   1.38313   1.38359
 Alpha virt. eigenvalues --    1.38486   1.39024   1.40511   1.42516   1.42851
 Alpha virt. eigenvalues --    1.43502   1.43641   1.43706   1.44072   1.44383
 Alpha virt. eigenvalues --    1.44797   1.45112   1.45747   1.46220   1.46734
 Alpha virt. eigenvalues --    1.47163   1.47574   1.48018   1.48777   1.48795
 Alpha virt. eigenvalues --    1.49514   1.49832   1.49966   1.51327   1.51473
 Alpha virt. eigenvalues --    1.52228   1.52284   1.52461   1.52540   1.53832
 Alpha virt. eigenvalues --    1.54739   1.54931   1.55030   1.55454   1.55609
 Alpha virt. eigenvalues --    1.55873   1.56099   1.56213   1.56714   1.58628
 Alpha virt. eigenvalues --    1.58764   1.59406   1.59485   1.60786   1.62088
 Alpha virt. eigenvalues --    1.62518   1.64358   1.64733   1.64964   1.65595
 Alpha virt. eigenvalues --    1.66089   1.66428   1.66591   1.66676   1.67231
 Alpha virt. eigenvalues --    1.68625   1.68781   1.69486   1.70035   1.70106
 Alpha virt. eigenvalues --    1.71002   1.71244   1.71365   1.73112   1.73452
 Alpha virt. eigenvalues --    1.74084   1.74185   1.74669   1.75104   1.76133
 Alpha virt. eigenvalues --    1.76586   1.76646   1.76775   1.78973   1.79381
 Alpha virt. eigenvalues --    1.79462   1.80337   1.80911   1.81489   1.81652
 Alpha virt. eigenvalues --    1.82289   1.82562   1.83566   1.83821   1.84647
 Alpha virt. eigenvalues --    1.86164   1.86696   1.87117   1.87830   1.88229
 Alpha virt. eigenvalues --    1.88502   1.88747   1.89232   1.89397   1.89563
 Alpha virt. eigenvalues --    1.90053   1.90634   1.90658   1.91240   1.91279
 Alpha virt. eigenvalues --    1.91557   1.91989   1.92271   1.92358   1.92466
 Alpha virt. eigenvalues --    1.92773   1.94134   1.94969   1.95802   1.95920
 Alpha virt. eigenvalues --    1.97022   1.97617   1.98755   1.98885   1.99215
 Alpha virt. eigenvalues --    1.99239   2.00039   2.00693   2.00965   2.04408
 Alpha virt. eigenvalues --    2.04861   2.04998   2.05447   2.06592   2.06637
 Alpha virt. eigenvalues --    2.06792   2.07061   2.07583   2.07851   2.08170
 Alpha virt. eigenvalues --    2.08746   2.08803   2.09983   2.10818   2.12533
 Alpha virt. eigenvalues --    2.12609   2.13337   2.15762   2.16356   2.16752
 Alpha virt. eigenvalues --    2.17743   2.18567   2.18810   2.18977   2.19015
 Alpha virt. eigenvalues --    2.19420   2.20013   2.20480   2.20682   2.21103
 Alpha virt. eigenvalues --    2.21135   2.22139   2.22415   2.23748   2.24082
 Alpha virt. eigenvalues --    2.24382   2.26464   2.28778   2.28845   2.29804
 Alpha virt. eigenvalues --    2.30189   2.30635   2.30782   2.31291   2.31438
 Alpha virt. eigenvalues --    2.31998   2.32186   2.32359   2.33320   2.34449
 Alpha virt. eigenvalues --    2.35209   2.35242   2.36811   2.37336   2.39253
 Alpha virt. eigenvalues --    2.39426   2.39578   2.39676   2.40846   2.41310
 Alpha virt. eigenvalues --    2.41637   2.42296   2.42623   2.44032   2.44259
 Alpha virt. eigenvalues --    2.45787   2.46259   2.46343   2.46420   2.48772
 Alpha virt. eigenvalues --    2.49997   2.50305   2.51234   2.51400   2.53236
 Alpha virt. eigenvalues --    2.53892   2.55285   2.57007   2.57655   2.58534
 Alpha virt. eigenvalues --    2.58631   2.59453   2.60483   2.61188   2.61865
 Alpha virt. eigenvalues --    2.62246   2.62800   2.63075   2.63454   2.64379
 Alpha virt. eigenvalues --    2.64998   2.65554   2.65731   2.67077   2.67306
 Alpha virt. eigenvalues --    2.68468   2.69164   2.70541   2.70676   2.70750
 Alpha virt. eigenvalues --    2.71521   2.71631   2.72554   2.76146   2.76446
 Alpha virt. eigenvalues --    2.76523   2.76827   2.77730   2.77766   2.78548
 Alpha virt. eigenvalues --    2.78964   2.80052   2.80506   2.80516   2.81629
 Alpha virt. eigenvalues --    2.82931   2.83042   2.85739   2.87057   2.89279
 Alpha virt. eigenvalues --    2.92297   2.92316   2.92379   2.93907   2.95242
 Alpha virt. eigenvalues --    2.95389   2.96440   2.97097   2.98596   2.98973
 Alpha virt. eigenvalues --    2.99376   3.00579   3.00873   3.01532   3.01855
 Alpha virt. eigenvalues --    3.02780   3.03218   3.03476   3.07142   3.09086
 Alpha virt. eigenvalues --    3.09324   3.09386   3.09971   3.10354   3.10905
 Alpha virt. eigenvalues --    3.10906   3.10933   3.11680   3.11919   3.11930
 Alpha virt. eigenvalues --    3.12093   3.12181   3.13392   3.14294   3.14584
 Alpha virt. eigenvalues --    3.15021   3.15203   3.15261   3.16407   3.16719
 Alpha virt. eigenvalues --    3.17387   3.18089   3.19777   3.20528   3.20680
 Alpha virt. eigenvalues --    3.22034   3.22251   3.23239   3.24383   3.25065
 Alpha virt. eigenvalues --    3.26854   3.27013   3.27930   3.27994   3.28017
 Alpha virt. eigenvalues --    3.28154   3.28700   3.28744   3.29162   3.29368
 Alpha virt. eigenvalues --    3.29920   3.30341   3.31671   3.31768   3.31888
 Alpha virt. eigenvalues --    3.32238   3.35463   3.36784   3.37989   3.38009
 Alpha virt. eigenvalues --    3.38730   3.39698   3.39858   3.39895   3.41227
 Alpha virt. eigenvalues --    3.42152   3.42273   3.43168   3.44715   3.44811
 Alpha virt. eigenvalues --    3.47347   3.48140   3.48245   3.49478   3.50858
 Alpha virt. eigenvalues --    3.51502   3.53688   3.53861   3.54077   3.54859
 Alpha virt. eigenvalues --    3.54972   3.55925   3.57470   3.58995   3.61565
 Alpha virt. eigenvalues --    3.68905   3.69535   3.75074   3.77360   3.79766
 Alpha virt. eigenvalues --    3.82103   3.83168   3.84067   3.84258   3.85108
 Alpha virt. eigenvalues --    3.86033   3.95982   3.96869   4.00814   4.02256
 Alpha virt. eigenvalues --    4.06643   4.08590   4.10847   4.14639   4.15702
 Alpha virt. eigenvalues --    4.26263   4.26345   4.40517   4.42776   4.50007
 Alpha virt. eigenvalues --    4.60326   4.60405   4.63230   4.63830   4.64003
 Alpha virt. eigenvalues --    4.65635   4.65794   4.72024   4.72630   4.78710
 Alpha virt. eigenvalues --    4.80128   4.82676  23.10324  23.20111  23.20689
 Alpha virt. eigenvalues --   23.39831  23.39948  23.54294  23.56287  23.58521
 Alpha virt. eigenvalues --   23.58955  23.59379  23.66116  23.67338  23.76891
 Alpha virt. eigenvalues --   23.77969  23.82076  23.82600  23.82601  23.82919
 Alpha virt. eigenvalues --   23.84911  23.85452  23.89534  23.93221  23.94873
 Alpha virt. eigenvalues --   23.96923  23.97092  23.97470  23.97571  23.97742
 Alpha virt. eigenvalues --   23.98298  23.98326  23.99494  23.99665  24.01046
 Alpha virt. eigenvalues --   24.01388  24.03493  24.03708  24.06977  24.07003
 Alpha virt. eigenvalues --   24.10858  24.10954  24.11734  24.11811  24.12330
 Alpha virt. eigenvalues --   24.12555  24.13621  24.13808  24.14672  24.14705
          Condensed to atoms (all electrons):
 Mulliken charges:
               1
     1  C    0.007055
     2  C    0.040153
     3  C   -0.234703
     4  C   -0.211227
     5  C    0.062007
     6  C    0.010657
     7  C   -0.237242
     8  C   -0.237245
     9  C    0.010680
    10  C    0.062026
    11  C   -0.234709
    12  C   -0.211257
    13  C    0.040121
    14  C    0.007087
    15  C   -0.217939
    16  C   -0.221535
    17  C    0.026316
    18  C    0.023224
    19  C   -0.221553
    20  C   -0.221636
    21  C    0.026146
    22  C    0.023331
    23  C   -0.221539
    24  C   -0.217835
    25  C    0.040151
    26  C    0.007054
    27  C   -0.211226
    28  C   -0.234701
    29  C    0.010662
    30  C    0.062003
    31  C   -0.237248
    32  C   -0.237245
    33  C    0.062024
    34  C    0.010682
    35  C   -0.211262
    36  C   -0.234708
    37  C    0.007096
    38  C    0.040116
    39  C   -0.221533
    40  C   -0.217932
    41  C    0.023222
    42  C    0.026309
    43  C   -0.221637
    44  C   -0.221549
    45  C    0.023335
    46  C    0.026148
    47  C   -0.217840
    48  C   -0.221544
    49  H    0.193314
    50  H    0.197457
    51  H    0.197365
    52  H    0.197352
    53  H    0.193316
    54  H    0.197461
    55  H    0.195099
    56  H    0.196532
    57  H    0.195068
    58  H    0.195075
    59  H    0.196524
    60  H    0.195055
    61  H    0.197457
    62  H    0.193314
    63  H    0.197353
    64  H    0.197368
    65  H    0.197465
    66  H    0.193316
    67  H    0.196531
    68  H    0.195095
    69  H    0.195075
    70  H    0.195064
    71  H    0.195060
    72  H    0.196527
 Sum of Mulliken charges =  -0.00000
 Mulliken charges with hydrogens summed into heavy atoms:
               1
     1  C    0.007055
     2  C    0.040153
     3  C   -0.041390
     4  C   -0.013770
     5  C    0.062007
     6  C    0.010657
     7  C   -0.039877
     8  C   -0.039893
     9  C    0.010680
    10  C    0.062026
    11  C   -0.041393
    12  C   -0.013795
    13  C    0.040121
    14  C    0.007087
    15  C   -0.022840
    16  C   -0.025003
    17  C    0.026316
    18  C    0.023224
    19  C   -0.026485
    20  C   -0.026561
    21  C    0.026146
    22  C    0.023331
    23  C   -0.025015
    24  C   -0.022780
    25  C    0.040151
    26  C    0.007054
    27  C   -0.013768
    28  C   -0.041387
    29  C    0.010662
    30  C    0.062003
    31  C   -0.039895
    32  C   -0.039878
    33  C    0.062024
    34  C    0.010682
    35  C   -0.013798
    36  C   -0.041393
    37  C    0.007096
    38  C    0.040116
    39  C   -0.025002
    40  C   -0.022837
    41  C    0.023222
    42  C    0.026309
    43  C   -0.026562
    44  C   -0.026485
    45  C    0.023335
    46  C    0.026148
    47  C   -0.022780
    48  C   -0.025017
 Electronic spatial extent (au):  <R**2>=          23049.9269
 Charge=             -0.0000 electrons
 Dipole moment (field-independent basis, Debye):
    X=             -0.0000    Y=             -0.0000    Z=             -0.0000  Tot=              0.0000
 Quadrupole moment (field-independent basis, Debye-Ang):
   XX=           -286.9983   YY=           -284.2145   ZZ=           -236.3678
   XY=             -1.9759   XZ=             -6.1839   YZ=             11.9209
 Traceless Quadrupole moment (field-independent basis, Debye-Ang):
   XX=            -17.8048   YY=            -15.0210   ZZ=             32.8258
   XY=             -1.9759   XZ=             -6.1839   YZ=             11.9209
 Octapole moment (field-independent basis, Debye-Ang**2):
  XXX=             -7.4691  YYY=              0.6021  ZZZ=             44.0047  XYY=             -2.4651
  XXY=              0.1680  XXZ=             17.7059  XZZ=             -1.2804  YZZ=             -1.3140
  YYZ=             17.6191  XYZ=              0.2262
 Hexadecapole moment (field-independent basis, Debye-Ang**3):
 XXXX=         -15548.9578 YYYY=         -15870.9942 ZZZZ=          -3464.3782 XXXY=            141.8915
 XXXZ=           -370.9545 YYYX=             88.1569 YYYZ=            798.2401 ZZZX=           -174.3568
 ZZZY=            342.6896 XXYY=          -5223.4617 XXZZ=          -2755.3583 YYZZ=          -2876.7333
 XXYZ=            259.9549 YYXZ=           -172.4414 ZZXY=             86.5680
 N-N= 5.434510395414D+03 E-N=-1.514730308817D+04  KE= 1.835870336588D+03
 There are a total of     1647288 grid points.
 ElSum from          density=      311.9999948810
 ElSum from atomic densities=      311.9997714126
 Hirshfeld populations at iteration   1 (CA, CB, DipXYZ):
               1          2          3          4          5
     1  C    3.001007   3.001007   0.002761  -0.020193  -0.015769
     2  C    3.001215   3.001215   0.009328   0.030270   0.007310
     3  C    3.020724   3.020724   0.007484   0.063310  -0.037363
     4  C    3.021711   3.021711  -0.001921  -0.072695   0.002546
     5  C    3.001887   3.001887   0.014378  -0.017696   0.001863
     6  C    3.000851   3.000851   0.011269  -0.031353  -0.003284
     7  C    3.019840   3.019840   0.008177  -0.007960   0.038010
     8  C    3.019841   3.019841  -0.001897   0.011233  -0.038008
     9  C    3.000853   3.000853  -0.019273   0.027173   0.003294
    10  C    3.001889   3.001889  -0.006277   0.021928  -0.001869
    11  C    3.020726   3.020726   0.056311  -0.029997   0.037311
    12  C    3.021715   3.021715  -0.060768   0.039962  -0.002489
    13  C    3.001215   3.001215   0.030174  -0.009636  -0.007349
    14  C    3.001011   3.001011  -0.014980   0.013843   0.015779
    15  C    3.020693   3.020693  -0.054632  -0.004412  -0.032682
    16  C    3.020589   3.020589   0.061782  -0.008422  -0.015992
    17  C    3.000910   3.000910  -0.020744  -0.003917  -0.013114
    18  C    3.001174   3.001174   0.013080   0.011672   0.012529
    19  C    3.021181   3.021181   0.053272   0.035659   0.020162
    20  C    3.021179   3.021179  -0.059668  -0.023363   0.020272
    21  C    3.000909   3.000909   0.015037   0.014778  -0.013124
    22  C    3.001177   3.001177  -0.017038  -0.004056   0.012541
    23  C    3.020587   3.020587  -0.028368  -0.055534  -0.015909
    24  C    3.020692   3.020692   0.034782   0.042270  -0.032756
    25  C    3.001215   3.001215  -0.009330  -0.030271  -0.007303
    26  C    3.001007   3.001007  -0.002764   0.020188   0.015770
    27  C    3.021711   3.021711   0.001920   0.072699  -0.002549
    28  C    3.020724   3.020724  -0.007483  -0.063312   0.037363
    29  C    3.000851   3.000851  -0.011268   0.031358   0.003283
    30  C    3.001887   3.001887  -0.014378   0.017699  -0.001862
    31  C    3.019841   3.019841   0.001899  -0.011236   0.038008
    32  C    3.019840   3.019840  -0.008176   0.007956  -0.038012
    33  C    3.001889   3.001889   0.006275  -0.021925   0.001867
    34  C    3.000853   3.000853   0.019272  -0.027172  -0.003290
    35  C    3.021715   3.021715   0.060768  -0.039961   0.002488
    36  C    3.020726   3.020726  -0.056311   0.029995  -0.037310
    37  C    3.001011   3.001011   0.014981  -0.013844  -0.015779
    38  C    3.001215   3.001215  -0.030173   0.009636   0.007349
    39  C    3.020590   3.020590  -0.061782   0.008424   0.015992
    40  C    3.020693   3.020693   0.054633   0.004411   0.032681
    41  C    3.001174   3.001174  -0.013082  -0.011671  -0.012524
    42  C    3.000910   3.000910   0.020740   0.003915   0.013111
    43  C    3.021179   3.021179   0.059664   0.023361  -0.020275
    44  C    3.021181   3.021181  -0.053269  -0.035658  -0.020163
    45  C    3.001176   3.001176   0.017042   0.004059  -0.012540
    46  C    3.000909   3.000909  -0.015036  -0.014775   0.013129
    47  C    3.020692   3.020692  -0.034784  -0.042276   0.032755
    48  C    3.020587   3.020587   0.028372   0.055537   0.015905
    49  H    0.477040   0.477040   0.028745   0.034561  -0.142006
    50  H    0.478037   0.478037   0.027636  -0.096634  -0.107125
    51  H    0.479329   0.479329   0.007304  -0.015920   0.140925
    52  H    0.479330   0.479330  -0.009085   0.014992  -0.140923
    53  H    0.477040   0.477040   0.044991   0.003947   0.141941
    54  H    0.478037   0.478037  -0.063380   0.077963   0.107162
    55  H    0.477931   0.477931  -0.042245  -0.022134  -0.138746
    56  H    0.477827   0.477827   0.080465  -0.025425  -0.120022
    57  H    0.478045   0.478045   0.031111   0.074146   0.122808
    58  H    0.478045   0.478045  -0.078461   0.016902   0.122905
    59  H    0.477829   0.477829  -0.025198  -0.080677  -0.119918
    60  H    0.477934   0.477934   0.042159   0.021874  -0.138802
    61  H    0.478037   0.478037  -0.027640   0.096636   0.107122
    62  H    0.477041   0.477041  -0.028747  -0.034561   0.142005
    63  H    0.479330   0.479330   0.009084  -0.014992   0.140924
    64  H    0.479329   0.479329  -0.007309   0.015915  -0.140926
    65  H    0.478037   0.478037   0.063377  -0.077968  -0.107160
    66  H    0.477040   0.477040  -0.044994  -0.003953  -0.141939
    67  H    0.477827   0.477827  -0.080462   0.025432   0.120022
    68  H    0.477932   0.477932   0.042246   0.022141   0.138744
    69  H    0.478045   0.478045   0.078454  -0.016898  -0.122909
    70  H    0.478045   0.478045  -0.031113  -0.074139  -0.122810
    71  H    0.477934   0.477934  -0.042148  -0.021886   0.138804
    72  H    0.477828   0.477828   0.025213   0.080672   0.119919
       Tot 155.999997 155.999997   0.000001  -0.000002  -0.000006

 Dip from Atomic Chgs             -0.000001   0.000000   0.000004
         Total Dipole             -0.000000  -0.000002  -0.000002

 Hirshfeld charges, spin densities, dipoles, and CM5 charges using IRadAn=      5:
              Q-H        S-H        Dx         Dy         Dz        Q-CM5   
     1  C   -0.002013   0.000000   0.002761  -0.020193  -0.015769  -0.006199
     2  C   -0.002430   0.000000   0.009328   0.030270   0.007310  -0.006727
     3  C   -0.041448   0.000000   0.007484   0.063310  -0.037363  -0.094383
     4  C   -0.043422   0.000000  -0.001921  -0.072695   0.002546  -0.096398
     5  C   -0.003775   0.000000   0.014378  -0.017696   0.001863  -0.010961
     6  C   -0.001703   0.000000   0.011269  -0.031353  -0.003284  -0.006108
     7  C   -0.039680   0.000000   0.008177  -0.007960   0.038010  -0.089615
     8  C   -0.039682   0.000000  -0.001897   0.011233  -0.038008  -0.089617
     9  C   -0.001706   0.000000  -0.019273   0.027173   0.003294  -0.006111
    10  C   -0.003779   0.000000  -0.006277   0.021928  -0.001869  -0.010966
    11  C   -0.041452   0.000000   0.056311  -0.029997   0.037311  -0.094387
    12  C   -0.043430   0.000000  -0.060768   0.039962  -0.002489  -0.096407
    13  C   -0.002429   0.000000   0.030174  -0.009636  -0.007349  -0.006726
    14  C   -0.002023   0.000000  -0.014980   0.013843   0.015779  -0.006209
    15  C   -0.041386   0.000000  -0.054632  -0.004412  -0.032682  -0.094389
    16  C   -0.041179   0.000000   0.061782  -0.008422  -0.015992  -0.094169
    17  C   -0.001819   0.000000  -0.020744  -0.003917  -0.013114  -0.006080
    18  C   -0.002348   0.000000   0.013080   0.011672   0.012529  -0.006585
    19  C   -0.042361   0.000000   0.053272   0.035659   0.020162  -0.095459
    20  C   -0.042358   0.000000  -0.059668  -0.023363   0.020272  -0.095456
    21  C   -0.001818   0.000000   0.015037   0.014778  -0.013124  -0.006078
    22  C   -0.002353   0.000000  -0.017038  -0.004056   0.012541  -0.006590
    23  C   -0.041174   0.000000  -0.028368  -0.055534  -0.015909  -0.094164
    24  C   -0.041384   0.000000   0.034782   0.042270  -0.032756  -0.094387
    25  C   -0.002431   0.000000  -0.009330  -0.030271  -0.007303  -0.006727
    26  C   -0.002013   0.000000  -0.002764   0.020188   0.015770  -0.006199
    27  C   -0.043422   0.000000   0.001920   0.072699  -0.002549  -0.096398
    28  C   -0.041448   0.000000  -0.007483  -0.063312   0.037363  -0.094383
    29  C   -0.001702   0.000000  -0.011268   0.031358   0.003283  -0.006107
    30  C   -0.003775   0.000000  -0.014378   0.017699  -0.001862  -0.010961
    31  C   -0.039682   0.000000   0.001899  -0.011236   0.038008  -0.089617
    32  C   -0.039679   0.000000  -0.008176   0.007956  -0.038012  -0.089615
    33  C   -0.003779   0.000000   0.006275  -0.021925   0.001867  -0.010966
    34  C   -0.001706   0.000000   0.019272  -0.027172  -0.003290  -0.006111
    35  C   -0.043430   0.000000   0.060768  -0.039961   0.002488  -0.096407
    36  C   -0.041452   0.000000  -0.056311   0.029995  -0.037310  -0.094387
    37  C   -0.002023   0.000000   0.014981  -0.013844  -0.015779  -0.006208
    38  C   -0.002429   0.000000  -0.030173   0.009636   0.007349  -0.006726
    39  C   -0.041179   0.000000  -0.061782   0.008424   0.015992  -0.094169
    40  C   -0.041386   0.000000   0.054633   0.004411   0.032681  -0.094389
    41  C   -0.002348   0.000000  -0.013082  -0.011671  -0.012524  -0.006585
    42  C   -0.001820   0.000000   0.020740   0.003915   0.013111  -0.006081
    43  C   -0.042358   0.000000   0.059664   0.023361  -0.020275  -0.095456
    44  C   -0.042361   0.000000  -0.053269  -0.035658  -0.020163  -0.095459
    45  C   -0.002353   0.000000   0.017042   0.004059  -0.012540  -0.006590
    46  C   -0.001817   0.000000  -0.015036  -0.014775   0.013129  -0.006078
    47  C   -0.041383   0.000000  -0.034784  -0.042276   0.032755  -0.094386
    48  C   -0.041173   0.000000   0.028372   0.055537   0.015905  -0.094164
    49  H    0.045919   0.000000   0.028745   0.034561  -0.142006   0.102059
    50  H    0.043926   0.000000   0.027636  -0.096634  -0.107125   0.101215
    51  H    0.041342   0.000000   0.007304  -0.015920   0.140925   0.099649
    52  H    0.041340   0.000000  -0.009085   0.014992  -0.140923   0.099646
    53  H    0.045920   0.000000   0.044991   0.003947   0.141941   0.102060
    54  H    0.043926   0.000000  -0.063380   0.077963   0.107162   0.101215
    55  H    0.044137   0.000000  -0.042245  -0.022134  -0.138746   0.101401
    56  H    0.044347   0.000000   0.080465  -0.025425  -0.120022   0.101534
    57  H    0.043910   0.000000   0.031111   0.074146   0.122808   0.101232
    58  H    0.043910   0.000000  -0.078461   0.016902   0.122905   0.101233
    59  H    0.044343   0.000000  -0.025198  -0.080677  -0.119918   0.101532
    60  H    0.044131   0.000000   0.042159   0.021874  -0.138802   0.101397
    61  H    0.043926   0.000000  -0.027640   0.096636   0.107122   0.101216
    62  H    0.045919   0.000000  -0.028747  -0.034561   0.142005   0.102059
    63  H    0.041341   0.000000   0.009084  -0.014992   0.140924   0.099647
    64  H    0.041343   0.000000  -0.007309   0.015915  -0.140926   0.099649
    65  H    0.043926   0.000000   0.063377  -0.077968  -0.107160   0.101215
    66  H    0.045920   0.000000  -0.044994  -0.003953  -0.141939   0.102060
    67  H    0.044347   0.000000  -0.080462   0.025432   0.120022   0.101534
    68  H    0.044137   0.000000   0.042246   0.022141   0.138744   0.101400
    69  H    0.043910   0.000000   0.078454  -0.016898  -0.122909   0.101233
    70  H    0.043909   0.000000  -0.031113  -0.074139  -0.122810   0.101232
    71  H    0.044132   0.000000  -0.042148  -0.021886   0.138804   0.101397
    72  H    0.044344   0.000000   0.025213   0.080672   0.119919   0.101532
       Tot   0.000005   0.000000   0.000001  -0.000002  -0.000006   0.000005
 Hirshfeld charges with hydrogens summed into heavy atoms:
              Q-H       Q-CM5   
     1  C   -0.002013  -0.006199
     2  C   -0.002430  -0.006727
     3  C    0.004471   0.007676
     4  C    0.000504   0.004817
     5  C   -0.003775  -0.010961
     6  C   -0.001703  -0.006108
     7  C    0.001663   0.010033
     8  C    0.001658   0.010029
     9  C   -0.001706  -0.006111
    10  C   -0.003779  -0.010966
    11  C    0.004469   0.007673
    12  C    0.000495   0.004808
    13  C   -0.002429  -0.006726
    14  C   -0.002023  -0.006209
    15  C    0.002751   0.007011
    16  C    0.003168   0.007365
    17  C   -0.001819  -0.006080
    18  C   -0.002348  -0.006585
    19  C    0.001549   0.005774
    20  C    0.001552   0.005777
    21  C   -0.001818  -0.006078
    22  C   -0.002353  -0.006590
    23  C    0.003169   0.007368
    24  C    0.002748   0.007010
    25  C   -0.002431  -0.006727
    26  C   -0.002013  -0.006199
    27  C    0.000504   0.004817
    28  C    0.004471   0.007676
    29  C   -0.001702  -0.006107
    30  C   -0.003775  -0.010961
    31  C    0.001659   0.010030
    32  C    0.001663   0.010034
    33  C   -0.003779  -0.010966
    34  C   -0.001706  -0.006111
    35  C    0.000496   0.004808
    36  C    0.004469   0.007673
    37  C   -0.002023  -0.006208
    38  C   -0.002429  -0.006726
    39  C    0.003167   0.007365
    40  C    0.002751   0.007011
    41  C   -0.002348  -0.006585
    42  C   -0.001820  -0.006081
    43  C    0.001552   0.005776
    44  C    0.001548   0.005773
    45  C   -0.002353  -0.006590
    46  C   -0.001817  -0.006078
    47  C    0.002749   0.007011
    48  C    0.003170   0.007368
 
 EQQ=  0.00000000000     EQD=  0.00000000000     EDD= 0.232939327419E-01
 EQQ+QD+DD= 0.232939327419E-01
 
 1\1\GINC-CU19\SP\RB3LYP\6-311G(d)\C48H24\WANG\24-May-2025\0\\# B3LYP/6
 -311G* Pop=Hirshfeld NOSYMM\\From ../..//2x2_1_1_1_1_CNB_opt.out\\0,1\
 C,0,3.938975,-1.773555,-0.245341\C,0,4.003418,-0.801481,0.778322\C,0,4
 .451655,-0.089444,-1.928942\C,0,4.377758,-1.398251,-1.569602\C,0,4.083
 04,0.939507,-0.991025\C,0,4.069194,0.610097,0.404481\C,0,3.759719,1.64
 6266,1.299238\C,0,3.501143,2.136649,-1.42994\C,0,2.828992,2.983432,-0.
 534849\C,0,3.109259,2.807594,0.860394\C,0,2.476672,3.698635,1.798583\C
 ,0,1.359694,4.385356,1.440367\C,0,1.632417,3.735712,-0.907517\C,0,0.79
 9142,4.238739,0.116972\C,0,-0.263047,3.708847,-2.430874\C,0,1.090764,3
 .674433,-2.22761\C,0,-1.160781,3.804168,-1.322993\C,0,-0.63047,4.27511
 4,-0.095338\C,0,-1.548626,4.456478,0.992289\C,0,-2.758388,3.824384,0.9
 93364\C,0,-2.447505,3.131706,-1.321821\C,0,-3.135354,2.966303,-0.09311
 6\C,0,-3.627865,1.208483,-2.223295\C,0,-2.883188,2.339277,-2.428444\C,
 0,-3.986046,0.800062,-0.902461\C,0,-3.921619,1.772151,0.121189\C,0,-4.
 360429,1.396866,1.445456\C,0,-4.434313,0.088068,1.804812\C,0,-4.051849
 ,-0.611522,-0.528602\C,0,-4.065684,-0.940902,0.866913\C,0,-3.483794,-2
 .138031,1.30585\C,0,-3.742413,-1.647716,-1.423335\C,0,-3.091949,-2.809
 04,-0.98447\C,0,-2.811651,-2.984839,0.410767\C,0,-1.342395,-4.386819,-
 1.564433\C,0,-2.459385,-3.700112,-1.922644\C,0,-0.78181,-4.240156,-0.2
 41058\C,0,-1.615064,-3.737099,0.783432\C,0,-1.073387,-3.675771,2.10351
 4\C,0,0.280426,-3.710188,2.306758\C,0,0.647809,-4.276513,-0.028776\C,0
 ,1.178143,-3.805551,1.198867\C,0,2.7757,-3.825764,-1.117517\C,0,1.5659
 35,-4.457863,-1.116422\C,0,3.152701,-2.967715,-0.031034\C,0,2.464875,-
 3.133122,1.197681\C,0,2.900626,-2.340732,2.304318\C,0,3.645302,-1.2099
 45,2.09917\H,0,4.669214,0.189298,-2.957203\H,0,4.549489,-2.165887,-2.3
 16711\H,0,3.819419,1.482241,2.370999\H,0,3.399134,2.278583,-2.501663\H
 ,0,2.831192,3.718679,2.826332\H,0,0.828782,4.965317,2.18783\H,0,-0.648
 241,3.53606,-3.430434\H,0,1.74371,3.476511,-3.071758\H,0,-1.242225,5.0
 06872,1.875511\H,0,-3.383963,3.887893,1.877396\H,0,-3.839145,0.558657,
 -3.066607\H,0,-2.522319,2.555721,-3.428575\H,0,-4.53219,2.164518,2.192
 541\H,0,-4.651886,-0.190669,2.833072\H,0,-3.381795,-2.279958,2.377575\
 H,0,-3.802149,-1.483733,-2.495101\H,0,-0.811507,-4.966813,-2.311887\H,
 0,-2.813931,-3.720195,-2.950383\H,0,-1.726316,-3.477803,2.947664\H,0,0
 .665636,-3.537351,3.306303\H,0,3.401236,-3.889243,-2.001579\H,0,1.2595
 08,-5.008215,-1.999661\H,0,2.539838,-2.557243,3.304465\H,0,3.856676,-0
 .560162,2.942494\\Version=ES64L-G16RevB.01\HF=-1843.8940604\RMSD=7.110
 e-09\Dipole=-0.0000003,-0.0000018,-0.0000011\Quadrupole=-13.2374021,-1
 1.1677404,24.4051425,-1.4690566,-4.597611,8.8628682\PG=C01 [X(C48H24)]
 \\@


 THIS CURIOUS WORLD WHICH WE INHABIT IS MORE WONDERFUL THAN IT IS CONVENIENT;
 MORE BEAUTIFUL THAN IT IS USEFUL;
 IT IS MORE TO BE ADMIRED THAN IT IS TO BE USED.

                                                                 -- THOREAU
 Job cpu time:       0 days  0 hours 36 minutes 17.6 seconds.
 Elapsed time:       0 days  0 hours  2 minutes  2.1 seconds.
 File lengths (MBytes):  RWF=    476 Int=      0 D2E=      0 Chk=     52 Scr=      1
 Normal termination of Gaussian 16 at Sat May 24 18:38:20 2025.
