 Entering Gaussian System, Link 0=g16
 Initial command:
 /opt/software/g16/l1.exe "/tmp/2x4_1_1_CNB_sgp-25659.tmp/Gau-19549.inp" -scrdir="/tmp/2x4_1_1_CNB_sgp-25659.tmp/"
 Entering Link 1 = /opt/software/g16/l1.exe PID=     19552.
  
 Copyright (c) 1988-2017, Gaussian, Inc.  All Rights Reserved.
  
 This is part of the Gaussian(R) 16 program.  It is based on
 the Gaussian(R) 09 system (copyright 2009, Gaussian, Inc.),
 the Gaussian(R) 03 system (copyright 2003, Gaussian, Inc.),
 the Gaussian(R) 98 system (copyright 1998, Gaussian, Inc.),
 the Gaussian(R) 94 system (copyright 1995, Gaussian, Inc.),
 the Gaussian 92(TM) system (copyright 1992, Gaussian, Inc.),
 the Gaussian 90(TM) system (copyright 1990, Gaussian, Inc.),
 the Gaussian 88(TM) system (copyright 1988, Gaussian, Inc.),
 the Gaussian 86(TM) system (copyright 1986, Carnegie Mellon
 University), and the Gaussian 82(TM) system (copyright 1983,
 Carnegie Mellon University). Gaussian is a federally registered
 trademark of Gaussian, Inc.
  
 This software contains proprietary and confidential information,
 including trade secrets, belonging to Gaussian, Inc.
  
 This software is provided under written license and may be
 used, copied, transmitted, or stored only in accord with that
 written license.
  
 The following legend is applicable only to US Government
 contracts under FAR:
  
                    RESTRICTED RIGHTS LEGEND
  
 Use, reproduction and disclosure by the US Government is
 subject to restrictions as set forth in subparagraphs (a)
 and (c) of the Commercial Computer Software - Restricted
 Rights clause in FAR 52.227-19.
  
 Gaussian, Inc.
 340 Quinnipiac St., Bldg. 40, Wallingford CT 06492
  
  
 ---------------------------------------------------------------
 Warning -- This program may not be used in any manner that
 competes with the business of Gaussian, Inc. or will provide
 assistance to any competitor of Gaussian, Inc.  The licensee
 of this program is prohibited from giving any competitor of
 Gaussian, Inc. access to this program.  By using this program,
 the user acknowledges that Gaussian, Inc. is engaged in the
 business of creating and licensing software in the field of
 computational chemistry and represents and warrants to the
 licensee that it is not a competitor of Gaussian, Inc. and that
 it will not use this program in any manner prohibited above.
 ---------------------------------------------------------------
  

 Cite this work as:
 Gaussian 16, Revision B.01,
 M. J. Frisch, G. W. Trucks, H. B. Schlegel, G. E. Scuseria, 
 M. A. Robb, J. R. Cheeseman, G. Scalmani, V. Barone, 
 G. A. Petersson, H. Nakatsuji, X. Li, M. Caricato, A. V. Marenich, 
 J. Bloino, B. G. Janesko, R. Gomperts, B. Mennucci, H. P. Hratchian, 
 J. V. Ortiz, A. F. Izmaylov, J. L. Sonnenberg, D. Williams-Young, 
 F. Ding, F. Lipparini, F. Egidi, J. Goings, B. Peng, A. Petrone, 
 T. Henderson, D. Ranasinghe, V. G. Zakrzewski, J. Gao, N. Rega, 
 G. Zheng, W. Liang, M. Hada, M. Ehara, K. Toyota, R. Fukuda, 
 J. Hasegawa, M. Ishida, T. Nakajima, Y. Honda, O. Kitao, H. Nakai, 
 T. Vreven, K. Throssell, J. A. Montgomery, Jr., J. E. Peralta, 
 F. Ogliaro, M. J. Bearpark, J. J. Heyd, E. N. Brothers, K. N. Kudin, 
 V. N. Staroverov, T. A. Keith, R. Kobayashi, J. Normand, 
 K. Raghavachari, A. P. Rendell, J. C. Burant, S. S. Iyengar, 
 J. Tomasi, M. Cossi, J. M. Millam, M. Klene, C. Adamo, R. Cammi, 
 J. W. Ochterski, R. L. Martin, K. Morokuma, O. Farkas, 
 J. B. Foresman, and D. J. Fox, Gaussian, Inc., Wallingford CT, 2016.
 
 ******************************************
 Gaussian 16:  ES64L-G16RevB.01 20-Dec-2017
                23-May-2025 
 ******************************************
 %nproc=18
 Will use up to   18 processors via shared memory.
 ------------------------------------
 # B3LYP/6-311G* Pop=Hirshfeld NOSYMM
 ------------------------------------
 1/38=1,172=1/1;
 2/12=2,15=1,17=6,18=5,40=1/2;
 3/5=4,6=6,7=1,11=2,25=1,30=1,74=-5/1,2,3;
 4//1;
 5/5=2,38=5/2;
 6/7=2,8=2,9=2,10=2,28=1,79=1/1;
 99/5=1,9=1/99;
 -------------------------------
 From ../..//2x4_1_1_CNB_opt.out
 -------------------------------
 Symbolic Z-matrix:
 Charge =  0 Multiplicity = 1
 6                     4.28732  -1.75607   1.14996 
 6                     3.82379  -0.65859   1.91444 
 6                     5.51855  -0.26906  -0.3396 
 6                     5.32446  -1.51188   0.16087 
 6                     4.68846   0.82956   0.10508 
 6                     4.02161   0.70155   1.38884 
 6                     3.31295   1.79934   1.85963 
 6                     4.35871   1.87119  -0.74263 
 6                     3.29702   2.75934  -0.41294 
 6                     2.88816   2.83014   0.97522 
 6                     1.84558   3.7085    1.32384 
 6                     2.47156   3.3266   -1.39469 
 6                     1.21393   3.85299  -1.04614 
 6                     0.96409   4.18417   0.34205 
 6                    -0.31089   4.72303   0.67165 
 6                     0.10306   3.76022  -1.93065 
 6                    -1.1973    3.88945  -1.46008 
 6                    -1.3881    4.54091  -0.17626 
 6                    -2.74455   4.77732   0.26849 
 6                    -3.76148   4.03711  -0.23225 
 6                    -2.31691   3.09259  -1.98617 
 6                    -3.50498   3.00338  -1.22177 
 6                    -2.84901   0.95606  -3.01382 
 6                    -2.13171   2.1309   -3.01373 
 6                    -3.78938   0.68134  -1.98658 
 6                    -4.25286   1.77878  -1.22201 
 6                    -5.28989   1.53456  -0.23284 
 6                    -5.48401   0.2917    0.26754 
 6                    -3.98715  -0.6788   -1.461 
 6                    -4.65401  -0.80691  -0.17728 
 6                    -4.32427  -1.84863   0.67037 
 6                    -3.27839  -1.77653  -1.93183 
 6                    -2.85363  -2.80738  -1.0475 
 6                    -3.26258  -2.73673   0.34064 
 6                    -2.43714  -3.30408   1.32239 
 6                    -1.81101  -3.68571  -1.39615 
 6                    -0.92958  -4.16144  -0.41436 
 6                    -1.1795   -3.83039   0.97385 
 6                    -0.06864  -3.73765   1.85843 
 6                     0.34544  -4.70027  -0.74394 
 6                     1.42259  -4.51815   0.10402 
 6                     1.23172  -3.86675   1.38788 
 6                     3.79598  -4.01437   0.16017 
 6                     2.77908  -4.75455  -0.34066 
 6                     3.53943  -2.98065   1.14968 
 6                     2.3513   -3.06983   1.91399 
 6                     2.16596  -2.10808   2.94145 
 6                     2.88327  -0.93323   2.94156 
 1                     6.2179   -0.10061  -1.15487 
 1                     5.88478  -2.34689  -0.24591 
 1                     2.85083   1.77447   2.84187 
 1                     4.77273   1.88991  -1.74862 
 1                     1.57767   3.82812   2.37153 
 1                     2.70045   3.14319  -2.44241 
 1                    -0.48349   5.09964   1.67771 
 1                     0.29208   3.33769  -2.91284 
 1                    -2.91419   5.47599   1.0841 
 1                    -4.76016   4.15376   0.17478 
 1                    -2.58272   0.18399  -3.7287 
 1                    -1.32317   2.24688  -3.72847 
 1                    -5.85007   2.36957   0.17414 
 1                    -6.18328   0.12324   1.08288 
 1                    -4.73827  -1.86738   1.67635 
 1                    -2.81621  -1.75155  -2.91404 
 1                    -2.66609  -3.12075   2.37011 
 1                    -1.54306  -3.80525  -2.44383 
 1                    -0.25774  -3.31523   2.84065 
 1                     0.51807  -5.07687  -1.74999 
 1                     4.79469  -4.13102  -0.24681 
 1                     2.94875  -5.4532   -1.15628 
 1                     1.35727  -2.22396   3.65604 
 1                     2.61681  -0.16109   3.65629 
 
 Symmetry turned off by external request.
 Stoichiometry    C48H24
 Framework group  C1[X(C48H24)]
 Deg. of freedom   210
 Full point group                 C1      NOp   1
                          Input orientation:                          
 ---------------------------------------------------------------------
 Center     Atomic      Atomic             Coordinates (Angstroms)
 Number     Number       Type             X           Y           Z
 ---------------------------------------------------------------------
      1          6           0        4.287315   -1.756067    1.149959
      2          6           0        3.823787   -0.658589    1.914442
      3          6           0        5.518548   -0.269059   -0.339595
      4          6           0        5.324461   -1.511881    0.160868
      5          6           0        4.688461    0.829557    0.105082
      6          6           0        4.021612    0.701547    1.388840
      7          6           0        3.312953    1.799335    1.859632
      8          6           0        4.358712    1.871192   -0.742630
      9          6           0        3.297016    2.759335   -0.412944
     10          6           0        2.888160    2.830136    0.975222
     11          6           0        1.845580    3.708503    1.323842
     12          6           0        2.471557    3.326603   -1.394694
     13          6           0        1.213929    3.852988   -1.046142
     14          6           0        0.964088    4.184173    0.342046
     15          6           0       -0.310891    4.723031    0.671652
     16          6           0        0.103057    3.760222   -1.930654
     17          6           0       -1.197298    3.889448   -1.460082
     18          6           0       -1.388099    4.540914   -0.176264
     19          6           0       -2.744550    4.777319    0.268491
     20          6           0       -3.761476    4.037107   -0.232254
     21          6           0       -2.316913    3.092587   -1.986167
     22          6           0       -3.504983    3.003384   -1.221767
     23          6           0       -2.849012    0.956060   -3.013822
     24          6           0       -2.131706    2.130901   -3.013730
     25          6           0       -3.789382    0.681336   -1.986575
     26          6           0       -4.252858    1.778781   -1.222008
     27          6           0       -5.289888    1.534560   -0.232836
     28          6           0       -5.484009    0.291696    0.267541
     29          6           0       -3.987149   -0.678797   -1.461001
     30          6           0       -4.654012   -0.806906   -0.177282
     31          6           0       -4.324266   -1.848626    0.670365
     32          6           0       -3.278394   -1.776529   -1.931834
     33          6           0       -2.853634   -2.807377   -1.047504
     34          6           0       -3.262576   -2.736726    0.340641
     35          6           0       -2.437137   -3.304084    1.322393
     36          6           0       -1.811006   -3.685709   -1.396148
     37          6           0       -0.929576   -4.161441   -0.414359
     38          6           0       -1.179496   -3.830394    0.973853
     39          6           0       -0.068644   -3.737654    1.858428
     40          6           0        0.345442   -4.700270   -0.743939
     41          6           0        1.422593   -4.518151    0.104024
     42          6           0        1.231717   -3.866745    1.387879
     43          6           0        3.795982   -4.014371    0.160167
     44          6           0        2.779076   -4.754546   -0.340657
     45          6           0        3.539427   -2.980645    1.149675
     46          6           0        2.351300   -3.069833    1.913992
     47          6           0        2.165957   -2.108082    2.941450
     48          6           0        2.883269   -0.933233    2.941558
     49          1           0        6.217904   -0.100610   -1.154867
     50          1           0        5.884776   -2.346895   -0.245913
     51          1           0        2.850831    1.774471    2.841868
     52          1           0        4.772726    1.889913   -1.748616
     53          1           0        1.577667    3.828123    2.371527
     54          1           0        2.700451    3.143195   -2.442406
     55          1           0       -0.483487    5.099637    1.677708
     56          1           0        0.292077    3.337685   -2.912839
     57          1           0       -2.914192    5.475994    1.084099
     58          1           0       -4.760164    4.153763    0.174782
     59          1           0       -2.582721    0.183989   -3.728697
     60          1           0       -1.323165    2.246879   -3.728469
     61          1           0       -5.850071    2.369568    0.174136
     62          1           0       -6.183282    0.123242    1.082882
     63          1           0       -4.738274   -1.867379    1.676353
     64          1           0       -2.816207   -1.751548   -2.914035
     65          1           0       -2.666089   -3.120749    2.370105
     66          1           0       -1.543060   -3.805245   -2.443834
     67          1           0       -0.257736   -3.315229    2.840648
     68          1           0        0.518072   -5.076866   -1.749992
     69          1           0        4.794693   -4.131020   -0.246814
     70          1           0        2.948748   -5.453199   -1.156278
     71          1           0        1.357271   -2.223955    3.656041
     72          1           0        2.616811   -0.161093    3.656292
 ---------------------------------------------------------------------
 Rotational constants (GHZ):           0.0827205           0.0644404           0.0419328
 Standard basis: 6-311G(d) (5D, 7F)
   936 basis functions,  1656 primitive gaussians,   984 cartesian basis functions
   156 alpha electrons      156 beta electrons
       nuclear repulsion energy      5332.4926309383 Hartrees.
 NAtoms=   72 NActive=   72 NUniq=   72 SFac= 1.00D+00 NAtFMM=   60 NAOKFM=T Big=T
 Integral buffers will be    131072 words long.
 Raffenetti 2 integral format.
 Two-electron integral symmetry is turned off.
 One-electron integrals computed using PRISM.
 NBasis=   936 RedAO= T EigKep=  6.52D-05  NBF=   936
 NBsUse=   936 1.00D-06 EigRej= -1.00D+00 NBFU=   936
 ExpMin= 1.03D-01 ExpMax= 4.56D+03 ExpMxC= 6.82D+02 IAcc=3 IRadAn=         5 AccDes= 0.00D+00
 Harris functional with IExCor=  402 and IRadAn=       5 diagonalized for initial guess.
 HarFok:  IExCor=  402 AccDes= 0.00D+00 IRadAn=         5 IDoV= 1 UseB2=F ITyADJ=14
 ICtDFT=  3500011 ScaDFX=  1.000000  1.000000  1.000000  1.000000
 FoFCou: FMM=F IPFlag=           0 FMFlag=      100000 FMFlg1=        2001
         NFxFlg=           0 DoJE=T BraDBF=F KetDBF=T FulRan=T
         wScrn=  0.000000 ICntrl=       500 IOpCl=  0 I1Cent=   200000004 NGrid=           0
         NMat0=    1 NMatS0=      1 NMatT0=    0 NMatD0=    1 NMtDS0=    0 NMtDT0=    0
 Symmetry not used in FoFCou.
 Requested convergence on RMS density matrix=1.00D-08 within 128 cycles.
 Requested convergence on MAX density matrix=1.00D-06.
 Requested convergence on             energy=1.00D-06.
 No special actions if energy rises.
 Integral accuracy reduced to 1.0D-05 until final iterations.
 Initial convergence to 1.0D-05 achieved.  Increase integral accuracy.
 SCF Done:  E(RB3LYP) =  -1843.86384008     A.U. after   14 cycles
            NFock= 14  Conv=0.73D-08     -V/T= 2.0044

 **********************************************************************

            Population analysis using the SCF Density.

 **********************************************************************

 Alpha  occ. eigenvalues --  -10.19660 -10.19660 -10.19660 -10.19659 -10.19502
 Alpha  occ. eigenvalues --  -10.19502 -10.19492 -10.19492 -10.19457 -10.19457
 Alpha  occ. eigenvalues --  -10.19429 -10.19429 -10.19401 -10.19401 -10.19399
 Alpha  occ. eigenvalues --  -10.19399 -10.19270 -10.19270 -10.19269 -10.19269
 Alpha  occ. eigenvalues --  -10.19171 -10.19171 -10.19170 -10.19170 -10.18460
 Alpha  occ. eigenvalues --  -10.18460 -10.18460 -10.18460 -10.18457 -10.18457
 Alpha  occ. eigenvalues --  -10.18457 -10.18457 -10.18352 -10.18352 -10.18352
 Alpha  occ. eigenvalues --  -10.18352 -10.18304 -10.18304 -10.18297 -10.18297
 Alpha  occ. eigenvalues --  -10.18296 -10.18296 -10.18244 -10.18244 -10.18226
 Alpha  occ. eigenvalues --  -10.18226 -10.18226 -10.18226  -0.90408  -0.89881
 Alpha  occ. eigenvalues --   -0.89760  -0.88154  -0.88035  -0.85363  -0.85344
 Alpha  occ. eigenvalues --   -0.82581  -0.81869  -0.81788  -0.80393  -0.80176
 Alpha  occ. eigenvalues --   -0.79218  -0.78955  -0.77441  -0.76599  -0.76437
 Alpha  occ. eigenvalues --   -0.76426  -0.73454  -0.73087  -0.73072  -0.72898
 Alpha  occ. eigenvalues --   -0.70305  -0.69052  -0.68260  -0.65996  -0.64156
 Alpha  occ. eigenvalues --   -0.63863  -0.63633  -0.63495  -0.61344  -0.61151
 Alpha  occ. eigenvalues --   -0.60844  -0.60546  -0.60120  -0.60047  -0.59344
 Alpha  occ. eigenvalues --   -0.56610  -0.54517  -0.54223  -0.53938  -0.53878
 Alpha  occ. eigenvalues --   -0.53298  -0.52226  -0.51058  -0.50710  -0.50541
 Alpha  occ. eigenvalues --   -0.49890  -0.49216  -0.47517  -0.47404  -0.47051
 Alpha  occ. eigenvalues --   -0.46766  -0.46393  -0.46108  -0.45984  -0.45238
 Alpha  occ. eigenvalues --   -0.44797  -0.44578  -0.44079  -0.43621  -0.43284
 Alpha  occ. eigenvalues --   -0.43077  -0.42926  -0.42712  -0.42531  -0.42326
 Alpha  occ. eigenvalues --   -0.41941  -0.41930  -0.41926  -0.41340  -0.41157
 Alpha  occ. eigenvalues --   -0.41089  -0.41047  -0.40449  -0.39947  -0.39737
 Alpha  occ. eigenvalues --   -0.38626  -0.38531  -0.36390  -0.36287  -0.36192
 Alpha  occ. eigenvalues --   -0.36047  -0.34941  -0.34723  -0.34103  -0.33928
 Alpha  occ. eigenvalues --   -0.33674  -0.33202  -0.32840  -0.32775  -0.32730
 Alpha  occ. eigenvalues --   -0.32273  -0.31513  -0.30979  -0.30288  -0.29987
 Alpha  occ. eigenvalues --   -0.29700  -0.26728  -0.26449  -0.26077  -0.25927
 Alpha  occ. eigenvalues --   -0.22861  -0.22249  -0.22156  -0.22082  -0.18764
 Alpha  occ. eigenvalues --   -0.17483
 Alpha virt. eigenvalues --   -0.10120  -0.08386  -0.05286  -0.04859  -0.04559
 Alpha virt. eigenvalues --   -0.04244  -0.01861  -0.01497  -0.01170  -0.00784
 Alpha virt. eigenvalues --    0.00752   0.01421   0.01499   0.03190   0.03925
 Alpha virt. eigenvalues --    0.03997   0.04845   0.04898   0.04996   0.05070
 Alpha virt. eigenvalues --    0.05557   0.05805   0.06213   0.06468   0.06600
 Alpha virt. eigenvalues --    0.06758   0.06921   0.08191   0.08201   0.08455
 Alpha virt. eigenvalues --    0.09095   0.09880   0.11272   0.11743   0.12709
 Alpha virt. eigenvalues --    0.12804   0.13329   0.13582   0.13758   0.14022
 Alpha virt. eigenvalues --    0.14150   0.14226   0.15553   0.16099   0.17132
 Alpha virt. eigenvalues --    0.17580   0.18607   0.19493   0.20775   0.20878
 Alpha virt. eigenvalues --    0.21399   0.21476   0.22421   0.22430   0.22730
 Alpha virt. eigenvalues --    0.23019   0.23195   0.24030   0.24837   0.24954
 Alpha virt. eigenvalues --    0.25313   0.26300   0.26716   0.26750   0.27238
 Alpha virt. eigenvalues --    0.27855   0.28167   0.28393   0.28487   0.28649
 Alpha virt. eigenvalues --    0.29089   0.29738   0.30106   0.30721   0.30857
 Alpha virt. eigenvalues --    0.30930   0.31214   0.31553   0.32505   0.32568
 Alpha virt. eigenvalues --    0.32616   0.32790   0.34389   0.34643   0.34881
 Alpha virt. eigenvalues --    0.35133   0.35361   0.35653   0.35720   0.36191
 Alpha virt. eigenvalues --    0.36424   0.36860   0.37047   0.37168   0.37717
 Alpha virt. eigenvalues --    0.37948   0.38105   0.38168   0.38501   0.38595
 Alpha virt. eigenvalues --    0.38924   0.39208   0.39507   0.39509   0.39561
 Alpha virt. eigenvalues --    0.40510   0.40661   0.40726   0.41149   0.41175
 Alpha virt. eigenvalues --    0.41741   0.41790   0.41907   0.42245   0.42316
 Alpha virt. eigenvalues --    0.42461   0.42596   0.42763   0.43106   0.43195
 Alpha virt. eigenvalues --    0.43196   0.43362   0.43481   0.43857   0.44480
 Alpha virt. eigenvalues --    0.44692   0.44742   0.44768   0.44856   0.44942
 Alpha virt. eigenvalues --    0.45213   0.45655   0.45684   0.45825   0.46278
 Alpha virt. eigenvalues --    0.46623   0.46752   0.47003   0.47066   0.47229
 Alpha virt. eigenvalues --    0.47334   0.47443   0.47726   0.47822   0.47893
 Alpha virt. eigenvalues --    0.48306   0.48333   0.48663   0.48750   0.48828
 Alpha virt. eigenvalues --    0.49276   0.49671   0.49845   0.49882   0.50280
 Alpha virt. eigenvalues --    0.50363   0.50720   0.51128   0.51252   0.52208
 Alpha virt. eigenvalues --    0.52634   0.53364   0.53687   0.53867   0.54506
 Alpha virt. eigenvalues --    0.55094   0.55181   0.55347   0.55409   0.56129
 Alpha virt. eigenvalues --    0.56480   0.56872   0.57173   0.57274   0.57320
 Alpha virt. eigenvalues --    0.57722   0.58041   0.58098   0.58379   0.59534
 Alpha virt. eigenvalues --    0.59958   0.59996   0.60306   0.60308   0.60388
 Alpha virt. eigenvalues --    0.61143   0.61642   0.62149   0.62577   0.62696
 Alpha virt. eigenvalues --    0.62902   0.62932   0.63325   0.63618   0.63649
 Alpha virt. eigenvalues --    0.63837   0.63949   0.64324   0.64663   0.64857
 Alpha virt. eigenvalues --    0.65097   0.66167   0.66224   0.66772   0.66909
 Alpha virt. eigenvalues --    0.67036   0.67252   0.67588   0.67854   0.68092
 Alpha virt. eigenvalues --    0.68529   0.68612   0.68671   0.68899   0.69017
 Alpha virt. eigenvalues --    0.69893   0.70503   0.70508   0.71301   0.72208
 Alpha virt. eigenvalues --    0.72413   0.73120   0.73259   0.73314   0.73874
 Alpha virt. eigenvalues --    0.73907   0.73985   0.74286   0.74482   0.74755
 Alpha virt. eigenvalues --    0.75167   0.75352   0.75554   0.76067   0.76175
 Alpha virt. eigenvalues --    0.76359   0.76497   0.77288   0.77606   0.77742
 Alpha virt. eigenvalues --    0.78124   0.78512   0.78642   0.78948   0.79485
 Alpha virt. eigenvalues --    0.80241   0.80485   0.80502   0.80896   0.81835
 Alpha virt. eigenvalues --    0.81930   0.82018   0.82725   0.82929   0.82950
 Alpha virt. eigenvalues --    0.83425   0.84377   0.84532   0.85238   0.85475
 Alpha virt. eigenvalues --    0.85982   0.86414   0.86468   0.86518   0.87092
 Alpha virt. eigenvalues --    0.87367   0.88409   0.88936   0.89037   0.89071
 Alpha virt. eigenvalues --    0.90755   0.90823   0.90836   0.91574   0.92471
 Alpha virt. eigenvalues --    0.92759   0.93355   0.94096   0.94208   0.94680
 Alpha virt. eigenvalues --    0.94843   0.95502   0.96699   0.96817   0.97642
 Alpha virt. eigenvalues --    0.98475   0.98626   0.98908   0.99436   1.00037
 Alpha virt. eigenvalues --    1.01093   1.01385   1.01501   1.02017   1.02574
 Alpha virt. eigenvalues --    1.03421   1.03664   1.04336   1.04637   1.04799
 Alpha virt. eigenvalues --    1.05308   1.06443   1.06679   1.06906   1.07154
 Alpha virt. eigenvalues --    1.07226   1.07414   1.08408   1.08662   1.08794
 Alpha virt. eigenvalues --    1.09105   1.09861   1.09885   1.10428   1.10726
 Alpha virt. eigenvalues --    1.10870   1.12115   1.12726   1.13298   1.13505
 Alpha virt. eigenvalues --    1.13731   1.13971   1.14125   1.15098   1.15453
 Alpha virt. eigenvalues --    1.15539   1.16438   1.16638   1.17381   1.18041
 Alpha virt. eigenvalues --    1.18264   1.18787   1.19283   1.19870   1.20155
 Alpha virt. eigenvalues --    1.21566   1.22735   1.22879   1.24182   1.25374
 Alpha virt. eigenvalues --    1.25697   1.25807   1.26411   1.27070   1.28109
 Alpha virt. eigenvalues --    1.28730   1.29797   1.30445   1.30690   1.31940
 Alpha virt. eigenvalues --    1.32639   1.32699   1.33169   1.34321   1.34901
 Alpha virt. eigenvalues --    1.36268   1.36481   1.36553   1.37157   1.39341
 Alpha virt. eigenvalues --    1.40190   1.40453   1.40984   1.41325   1.43252
 Alpha virt. eigenvalues --    1.43368   1.43878   1.44357   1.44779   1.44853
 Alpha virt. eigenvalues --    1.44935   1.44986   1.45710   1.46092   1.46120
 Alpha virt. eigenvalues --    1.46849   1.46876   1.47346   1.47501   1.48068
 Alpha virt. eigenvalues --    1.49205   1.49424   1.49426   1.50132   1.51622
 Alpha virt. eigenvalues --    1.51912   1.51941   1.52030   1.53066   1.53095
 Alpha virt. eigenvalues --    1.53153   1.53476   1.54146   1.54220   1.54931
 Alpha virt. eigenvalues --    1.54999   1.55061   1.55868   1.56449   1.57182
 Alpha virt. eigenvalues --    1.57812   1.57941   1.58372   1.59078   1.59670
 Alpha virt. eigenvalues --    1.60012   1.60668   1.63014   1.63161   1.63363
 Alpha virt. eigenvalues --    1.64275   1.64737   1.65186   1.66160   1.66619
 Alpha virt. eigenvalues --    1.67533   1.67808   1.68017   1.68855   1.70031
 Alpha virt. eigenvalues --    1.70063   1.70431   1.70907   1.72547   1.72952
 Alpha virt. eigenvalues --    1.73676   1.74208   1.74364   1.75346   1.75457
 Alpha virt. eigenvalues --    1.75789   1.76353   1.76845   1.78738   1.79040
 Alpha virt. eigenvalues --    1.79688   1.80438   1.80836   1.80913   1.81227
 Alpha virt. eigenvalues --    1.82325   1.83485   1.83604   1.84014   1.85100
 Alpha virt. eigenvalues --    1.85390   1.85467   1.86507   1.88193   1.88701
 Alpha virt. eigenvalues --    1.89034   1.89054   1.89468   1.89591   1.89717
 Alpha virt. eigenvalues --    1.90160   1.90832   1.91223   1.91462   1.91766
 Alpha virt. eigenvalues --    1.92122   1.92149   1.92344   1.92858   1.93166
 Alpha virt. eigenvalues --    1.93354   1.93670   1.95330   1.95622   1.95627
 Alpha virt. eigenvalues --    1.96933   1.97195   1.98380   1.99005   1.99411
 Alpha virt. eigenvalues --    2.00274   2.01036   2.01258   2.01498   2.03571
 Alpha virt. eigenvalues --    2.03909   2.04044   2.04471   2.04959   2.06726
 Alpha virt. eigenvalues --    2.07014   2.07282   2.07491   2.08410   2.08505
 Alpha virt. eigenvalues --    2.08673   2.09214   2.09216   2.10196   2.11116
 Alpha virt. eigenvalues --    2.12665   2.14345   2.15737   2.16130   2.16402
 Alpha virt. eigenvalues --    2.16533   2.17607   2.17705   2.18102   2.18487
 Alpha virt. eigenvalues --    2.18791   2.18927   2.19634   2.19817   2.20274
 Alpha virt. eigenvalues --    2.21533   2.21665   2.21891   2.22731   2.23235
 Alpha virt. eigenvalues --    2.24629   2.25168   2.25178   2.29227   2.29944
 Alpha virt. eigenvalues --    2.30742   2.31227   2.31245   2.31918   2.32505
 Alpha virt. eigenvalues --    2.32571   2.34990   2.35833   2.35935   2.36189
 Alpha virt. eigenvalues --    2.36651   2.37700   2.38068   2.38400   2.38535
 Alpha virt. eigenvalues --    2.38803   2.40309   2.40802   2.41486   2.42516
 Alpha virt. eigenvalues --    2.42891   2.42897   2.43342   2.43382   2.44910
 Alpha virt. eigenvalues --    2.45307   2.45874   2.46651   2.48311   2.48349
 Alpha virt. eigenvalues --    2.50808   2.51438   2.51579   2.52093   2.52528
 Alpha virt. eigenvalues --    2.53166   2.53606   2.54582   2.56643   2.56705
 Alpha virt. eigenvalues --    2.57363   2.58888   2.59064   2.59302   2.60627
 Alpha virt. eigenvalues --    2.60800   2.61453   2.62166   2.62747   2.63189
 Alpha virt. eigenvalues --    2.64424   2.64621   2.64709   2.66165   2.66704
 Alpha virt. eigenvalues --    2.68376   2.68894   2.68984   2.69817   2.70856
 Alpha virt. eigenvalues --    2.70890   2.71922   2.72830   2.73086   2.73963
 Alpha virt. eigenvalues --    2.75741   2.76350   2.77153   2.77746   2.78683
 Alpha virt. eigenvalues --    2.79038   2.80510   2.82149   2.82588   2.82659
 Alpha virt. eigenvalues --    2.82937   2.83606   2.85593   2.85895   2.86918
 Alpha virt. eigenvalues --    2.91775   2.93151   2.93677   2.93692   2.95143
 Alpha virt. eigenvalues --    2.95390   2.96975   2.97398   2.97977   2.98146
 Alpha virt. eigenvalues --    2.98737   2.98836   2.98945   3.00042   3.01834
 Alpha virt. eigenvalues --    3.02106   3.02196   3.04292   3.06217   3.06576
 Alpha virt. eigenvalues --    3.07435   3.07666   3.08996   3.09158   3.09877
 Alpha virt. eigenvalues --    3.10393   3.12064   3.12191   3.12410   3.12594
 Alpha virt. eigenvalues --    3.12753   3.12942   3.13373   3.13494   3.13653
 Alpha virt. eigenvalues --    3.14106   3.14168   3.14488   3.15065   3.16146
 Alpha virt. eigenvalues --    3.18008   3.19151   3.19666   3.21219   3.21297
 Alpha virt. eigenvalues --    3.21549   3.22370   3.23146   3.23363   3.23632
 Alpha virt. eigenvalues --    3.24574   3.24705   3.24968   3.25002   3.26164
 Alpha virt. eigenvalues --    3.27043   3.27964   3.28270   3.28764   3.28785
 Alpha virt. eigenvalues --    3.29070   3.30804   3.31197   3.31821   3.32295
 Alpha virt. eigenvalues --    3.34066   3.34506   3.35913   3.36708   3.37573
 Alpha virt. eigenvalues --    3.37655   3.38189   3.38955   3.40729   3.40735
 Alpha virt. eigenvalues --    3.41621   3.42341   3.42660   3.42989   3.43438
 Alpha virt. eigenvalues --    3.45693   3.46598   3.46943   3.47288   3.48309
 Alpha virt. eigenvalues --    3.48332   3.48522   3.50355   3.52717   3.54120
 Alpha virt. eigenvalues --    3.55017   3.55284   3.56429   3.60926   3.63265
 Alpha virt. eigenvalues --    3.69418   3.70830   3.75408   3.76614   3.78323
 Alpha virt. eigenvalues --    3.84042   3.84371   3.89720   3.90673   3.91254
 Alpha virt. eigenvalues --    3.91275   3.94196   3.95730   3.98338   3.99804
 Alpha virt. eigenvalues --    4.02885   4.05310   4.07377   4.12885   4.13238
 Alpha virt. eigenvalues --    4.25130   4.25891   4.39396   4.41145   4.48017
 Alpha virt. eigenvalues --    4.57163   4.58956   4.60238   4.61832   4.63189
 Alpha virt. eigenvalues --    4.65849   4.67299   4.71548   4.73205   4.75649
 Alpha virt. eigenvalues --    4.78718   4.79319  23.10642  23.19996  23.20427
 Alpha virt. eigenvalues --   23.39094  23.39721  23.54780  23.54988  23.57084
 Alpha virt. eigenvalues --   23.61821  23.63633  23.68250  23.68328  23.73664
 Alpha virt. eigenvalues --   23.76626  23.78212  23.78273  23.81806  23.82071
 Alpha virt. eigenvalues --   23.84834  23.85506  23.88818  23.90618  23.96867
 Alpha virt. eigenvalues --   23.97039  23.97664  23.97868  23.97950  23.98478
 Alpha virt. eigenvalues --   23.99992  24.00035  24.02989  24.03069  24.04545
 Alpha virt. eigenvalues --   24.04690  24.04765  24.04900  24.05540  24.05600
 Alpha virt. eigenvalues --   24.07091  24.07191  24.07289  24.07383  24.10617
 Alpha virt. eigenvalues --   24.10664  24.14454  24.14482  24.16550  24.16569
          Condensed to atoms (all electrons):
 Mulliken charges:
               1
     1  C   -0.000125
     2  C    0.044722
     3  C   -0.223788
     4  C   -0.213379
     5  C    0.051731
     6  C   -0.001760
     7  C   -0.226313
     8  C   -0.242601
     9  C    0.052606
    10  C    0.049108
    11  C   -0.246692
    12  C   -0.246711
    13  C    0.049063
    14  C    0.052640
    15  C   -0.242660
    16  C   -0.226274
    17  C   -0.001858
    18  C    0.051832
    19  C   -0.223805
    20  C   -0.213342
    21  C    0.044824
    22  C   -0.000212
    23  C   -0.218640
    24  C   -0.218706
    25  C    0.044733
    26  C   -0.000138
    27  C   -0.213363
    28  C   -0.223802
    29  C   -0.001780
    30  C    0.051760
    31  C   -0.242609
    32  C   -0.226309
    33  C    0.049102
    34  C    0.052619
    35  C   -0.246715
    36  C   -0.246688
    37  C    0.052628
    38  C    0.049068
    39  C   -0.226277
    40  C   -0.242657
    41  C    0.051819
    42  C   -0.001848
    43  C   -0.213333
    44  C   -0.223800
    45  C   -0.000222
    46  C    0.044820
    47  C   -0.218695
    48  C   -0.218631
    49  H    0.195505
    50  H    0.198184
    51  H    0.197725
    52  H    0.194739
    53  H    0.193230
    54  H    0.193223
    55  H    0.194735
    56  H    0.197723
    57  H    0.195502
    58  H    0.198151
    59  H    0.195818
    60  H    0.195807
    61  H    0.198176
    62  H    0.195503
    63  H    0.194739
    64  H    0.197721
    65  H    0.193223
    66  H    0.193230
    67  H    0.197728
    68  H    0.194736
    69  H    0.198144
    70  H    0.195503
    71  H    0.195800
    72  H    0.195811
 Sum of Mulliken charges =  -0.00000
 Mulliken charges with hydrogens summed into heavy atoms:
               1
     1  C   -0.000125
     2  C    0.044722
     3  C   -0.028283
     4  C   -0.015195
     5  C    0.051731
     6  C   -0.001760
     7  C   -0.028588
     8  C   -0.047862
     9  C    0.052606
    10  C    0.049108
    11  C   -0.053462
    12  C   -0.053488
    13  C    0.049063
    14  C    0.052640
    15  C   -0.047925
    16  C   -0.028551
    17  C   -0.001858
    18  C    0.051832
    19  C   -0.028303
    20  C   -0.015192
    21  C    0.044824
    22  C   -0.000212
    23  C   -0.022822
    24  C   -0.022899
    25  C    0.044733
    26  C   -0.000138
    27  C   -0.015187
    28  C   -0.028299
    29  C   -0.001780
    30  C    0.051760
    31  C   -0.047870
    32  C   -0.028588
    33  C    0.049102
    34  C    0.052619
    35  C   -0.053492
    36  C   -0.053458
    37  C    0.052628
    38  C    0.049068
    39  C   -0.028548
    40  C   -0.047921
    41  C    0.051819
    42  C   -0.001848
    43  C   -0.015189
    44  C   -0.028298
    45  C   -0.000222
    46  C    0.044820
    47  C   -0.022895
    48  C   -0.022820
 Electronic spatial extent (au):  <R**2>=          25035.5497
 Charge=              0.0000 electrons
 Dipole moment (field-independent basis, Debye):
    X=              0.0001    Y=              0.0001    Z=              0.0000  Tot=              0.0001
 Quadrupole moment (field-independent basis, Debye-Ang):
   XX=           -272.8566   YY=           -283.6536   ZZ=           -254.5170
   XY=            -10.4968   XZ=            -22.6944   YZ=             13.8543
 Traceless Quadrupole moment (field-independent basis, Debye-Ang):
   XX=             -2.5142   YY=            -13.3112   ZZ=             15.8254
   XY=            -10.4968   XZ=            -22.6944   YZ=             13.8543
 Octapole moment (field-independent basis, Debye-Ang**2):
  XXX=            -14.0836  YYY=             -9.6584  ZZZ=             27.5546  XYY=             -5.1243
  XXY=             -3.4671  XXZ=              9.0725  XZZ=             -2.7549  YZZ=             -3.8866
  YYZ=             10.5608  XYZ=              0.3623
 Hexadecapole moment (field-independent basis, Debye-Ang**3):
 XXXX=         -17125.8090 YYYY=         -16114.3272 ZZZZ=          -3624.5886 XXXY=            439.0202
 XXXZ=          -2236.8423 YYYX=            548.4957 YYYZ=           1406.3009 ZZZX=          -1562.9204
 ZZZY=            954.1118 XXYY=          -5487.7748 XXZZ=          -3580.3169 YYZZ=          -3136.4608
 XXYZ=            411.8032 YYXZ=           -741.4661 ZZXY=            432.3492
 N-N= 5.332492630938D+03 E-N=-1.494295149046D+04  KE= 1.835847623377D+03
 There are a total of     1653328 grid points.
 ElSum from          density=      312.0000775424
 ElSum from atomic densities=      311.9998872483
 Hirshfeld populations at iteration   1 (CA, CB, DipXYZ):
               1          2          3          4          5
     1  C    3.001469   3.001469   0.017578  -0.014075  -0.011778
     2  C    3.001379   3.001379   0.008949   0.035946   0.000372
     3  C    3.021033   3.021033   0.022323   0.065906  -0.039724
     4  C    3.021896   3.021896  -0.003525  -0.076242   0.020173
     5  C    3.002571   3.002571   0.012662  -0.029824   0.025852
     6  C    3.000733   3.000733   0.020927  -0.041654  -0.004010
     7  C    3.019832   3.019832  -0.019679   0.016979   0.033131
     8  C    3.020072   3.020072   0.005548   0.024894  -0.041537
     9  C    3.002056   3.002056   0.008532   0.002450   0.022589
    10  C    3.001328   3.001328   0.019134  -0.001245  -0.014737
    11  C    3.019694   3.019694  -0.004006   0.007274   0.037939
    12  C    3.019701   3.019701   0.008290  -0.000166  -0.037946
    13  C    3.001331   3.001331  -0.009820   0.016469   0.014733
    14  C    3.002056   3.002056  -0.001680   0.008705  -0.022553
    15  C    3.020072   3.020072   0.019594   0.016307   0.041511
    16  C    3.019834   3.019834   0.024076  -0.009742  -0.033119
    17  C    3.000737   3.000737  -0.046596  -0.000380   0.004002
    18  C    3.002573   3.002573  -0.032279  -0.002299  -0.025869
    19  C    3.021033   3.021033   0.048406   0.049954   0.039746
    20  C    3.021903   3.021903  -0.066208  -0.037911  -0.020193
    21  C    3.001380   3.001380   0.027853   0.024413  -0.000385
    22  C    3.001473   3.001473  -0.020548   0.009187   0.011744
    23  C    3.020086   3.020086  -0.008314  -0.054095  -0.023395
    24  C    3.020098   3.020098   0.044254   0.032140  -0.023453
    25  C    3.001378   3.001378  -0.008941  -0.035943  -0.000378
    26  C    3.001469   3.001469  -0.017569   0.014079   0.011775
    27  C    3.021896   3.021896   0.003524   0.076235  -0.020160
    28  C    3.021032   3.021032  -0.022326  -0.065898   0.039720
    29  C    3.000734   3.000734  -0.020927   0.041642   0.004010
    30  C    3.002571   3.002571  -0.012661   0.029812  -0.025845
    31  C    3.020072   3.020072  -0.005556  -0.024884   0.041528
    32  C    3.019832   3.019832   0.019673  -0.016964  -0.033132
    33  C    3.001329   3.001329  -0.019124   0.001233   0.014739
    34  C    3.002056   3.002056  -0.008519  -0.002460  -0.022585
    35  C    3.019701   3.019701  -0.008304   0.000169   0.037940
    36  C    3.019695   3.019695   0.003996  -0.007263  -0.037945
    37  C    3.002056   3.002056   0.001692  -0.008712   0.022559
    38  C    3.001330   3.001330   0.009835  -0.016472  -0.014733
    39  C    3.019833   3.019833  -0.024088   0.009740   0.033118
    40  C    3.020072   3.020072  -0.019604  -0.016306  -0.041518
    41  C    3.002573   3.002573   0.032286   0.002304   0.025878
    42  C    3.000736   3.000736   0.046603   0.000387  -0.004003
    43  C    3.021903   3.021903   0.066210   0.037911   0.020201
    44  C    3.021033   3.021033  -0.048409  -0.049951  -0.039750
    45  C    3.001473   3.001473   0.020544  -0.009194  -0.011743
    46  C    3.001381   3.001381  -0.027849  -0.024420   0.000375
    47  C    3.020097   3.020097  -0.044254  -0.032130   0.023455
    48  C    3.020086   3.020086   0.008303   0.054091   0.023397
    49  H    0.476653   0.476653   0.096068   0.019739  -0.112934
    50  H    0.477943   0.477943   0.082932  -0.106528  -0.059016
    51  H    0.479213   0.479213  -0.062401   0.002490   0.127930
    52  H    0.478040   0.478040   0.053826   0.003121  -0.135862
    53  H    0.478276   0.478276  -0.036794   0.014288   0.140630
    54  H    0.478277   0.478277   0.029529  -0.026154  -0.140639
    55  H    0.478043   0.478043  -0.021824   0.049279   0.135869
    56  H    0.479216   0.479216   0.030733  -0.054383  -0.127914
    57  H    0.476654   0.476654  -0.026331   0.094415   0.112982
    58  H    0.477946   0.477946  -0.132631   0.025069   0.059056
    59  H    0.477708   0.477708   0.042175  -0.097337  -0.101126
    60  H    0.477709   0.477709   0.105863   0.006982  -0.101122
    61  H    0.477944   0.477944  -0.082914   0.106524   0.059044
    62  H    0.476653   0.476653  -0.096056  -0.019739   0.112944
    63  H    0.478041   0.478041  -0.053824  -0.003124   0.135861
    64  H    0.479214   0.479214   0.062410  -0.002477  -0.127923
    65  H    0.478278   0.478278  -0.029538   0.026145   0.140639
    66  H    0.478276   0.478276   0.036797  -0.014277  -0.140631
    67  H    0.479215   0.479215  -0.030741   0.054369   0.127921
    68  H    0.478042   0.478042   0.021828  -0.049279  -0.135869
    69  H    0.477946   0.477946   0.132634  -0.025068  -0.059048
    70  H    0.476654   0.476654   0.026335  -0.094412  -0.112983
    71  H    0.477710   0.477710  -0.105882  -0.006963   0.101101
    72  H    0.477709   0.477709  -0.042201   0.097344   0.101106
       Tot 156.000039 156.000039  -0.000001   0.000020   0.000009

 Dip from Atomic Chgs              0.000020   0.000009   0.000011
         Total Dipole              0.000019   0.000029   0.000019

 Hirshfeld charges, spin densities, dipoles, and CM5 charges using IRadAn=      5:
              Q-H        S-H        Dx         Dy         Dz        Q-CM5   
     1  C   -0.002939   0.000000   0.017578  -0.014075  -0.011778  -0.007070
     2  C   -0.002758   0.000000   0.008949   0.035946   0.000372  -0.007119
     3  C   -0.042065   0.000000   0.022323   0.065906  -0.039724  -0.094963
     4  C   -0.043791   0.000000  -0.003525  -0.076242   0.020173  -0.096815
     5  C   -0.005141   0.000000   0.012662  -0.029824   0.025852  -0.012239
     6  C   -0.001467   0.000000   0.020927  -0.041654  -0.004010  -0.005974
     7  C   -0.039663   0.000000  -0.019679   0.016979   0.033131  -0.089651
     8  C   -0.040144   0.000000   0.005548   0.024894  -0.041537  -0.089936
     9  C   -0.004112   0.000000   0.008532   0.002450   0.022589  -0.011229
    10  C   -0.002657   0.000000   0.019134  -0.001245  -0.014737  -0.009917
    11  C   -0.039389   0.000000  -0.004006   0.007274   0.037939  -0.089283
    12  C   -0.039403   0.000000   0.008290  -0.000166  -0.037946  -0.089297
    13  C   -0.002662   0.000000  -0.009820   0.016469   0.014733  -0.009922
    14  C   -0.004112   0.000000  -0.001680   0.008705  -0.022553  -0.011228
    15  C   -0.040143   0.000000   0.019594   0.016307   0.041511  -0.089934
    16  C   -0.039668   0.000000   0.024076  -0.009742  -0.033119  -0.089656
    17  C   -0.001474   0.000000  -0.046596  -0.000380   0.004002  -0.005980
    18  C   -0.005146   0.000000  -0.032279  -0.002299  -0.025869  -0.012244
    19  C   -0.042066   0.000000   0.048406   0.049954   0.039746  -0.094964
    20  C   -0.043806   0.000000  -0.066208  -0.037911  -0.020193  -0.096830
    21  C   -0.002760   0.000000   0.027853   0.024413  -0.000385  -0.007122
    22  C   -0.002945   0.000000  -0.020548   0.009187   0.011744  -0.007077
    23  C   -0.040173   0.000000  -0.008314  -0.054095  -0.023395  -0.093140
    24  C   -0.040195   0.000000   0.044254   0.032140  -0.023453  -0.093163
    25  C   -0.002756   0.000000  -0.008941  -0.035943  -0.000378  -0.007117
    26  C   -0.002938   0.000000  -0.017569   0.014079   0.011775  -0.007070
    27  C   -0.043793   0.000000   0.003524   0.076235  -0.020160  -0.096817
    28  C   -0.042065   0.000000  -0.022326  -0.065898   0.039720  -0.094963
    29  C   -0.001468   0.000000  -0.020927   0.041642   0.004010  -0.005975
    30  C   -0.005141   0.000000  -0.012661   0.029812  -0.025845  -0.012239
    31  C   -0.040143   0.000000  -0.005556  -0.024884   0.041528  -0.089934
    32  C   -0.039665   0.000000   0.019673  -0.016964  -0.033132  -0.089653
    33  C   -0.002658   0.000000  -0.019124   0.001233   0.014739  -0.009918
    34  C   -0.004112   0.000000  -0.008519  -0.002460  -0.022585  -0.011229
    35  C   -0.039402   0.000000  -0.008304   0.000169   0.037940  -0.089296
    36  C   -0.039390   0.000000   0.003996  -0.007263  -0.037945  -0.089284
    37  C   -0.004112   0.000000   0.001692  -0.008712   0.022559  -0.011229
    38  C   -0.002661   0.000000   0.009835  -0.016472  -0.014733  -0.009921
    39  C   -0.039666   0.000000  -0.024088   0.009740   0.033118  -0.089655
    40  C   -0.040143   0.000000  -0.019604  -0.016306  -0.041518  -0.089935
    41  C   -0.005146   0.000000   0.032286   0.002304   0.025878  -0.012244
    42  C   -0.001472   0.000000   0.046603   0.000387  -0.004003  -0.005979
    43  C   -0.043806   0.000000   0.066210   0.037911   0.020201  -0.096830
    44  C   -0.042066   0.000000  -0.048409  -0.049951  -0.039750  -0.094964
    45  C   -0.002947   0.000000   0.020544  -0.009194  -0.011743  -0.007078
    46  C   -0.002762   0.000000  -0.027849  -0.024420   0.000375  -0.007124
    47  C   -0.040195   0.000000  -0.044254  -0.032130   0.023455  -0.093163
    48  C   -0.040172   0.000000   0.008303   0.054091   0.023397  -0.093140
    49  H    0.046694   0.000000   0.096068   0.019739  -0.112934   0.102808
    50  H    0.044114   0.000000   0.082932  -0.106528  -0.059016   0.101388
    51  H    0.041573   0.000000  -0.062401   0.002490   0.127930   0.099887
    52  H    0.043920   0.000000   0.053826   0.003121  -0.135862   0.100970
    53  H    0.043448   0.000000  -0.036794   0.014288   0.140630   0.100513
    54  H    0.043445   0.000000   0.029529  -0.026154  -0.140639   0.100510
    55  H    0.043914   0.000000  -0.021824   0.049279   0.135869   0.100965
    56  H    0.041569   0.000000   0.030733  -0.054383  -0.127914   0.099884
    57  H    0.046692   0.000000  -0.026331   0.094415   0.112982   0.102807
    58  H    0.044108   0.000000  -0.132631   0.025069   0.059056   0.101383
    59  H    0.044584   0.000000   0.042175  -0.097337  -0.101126   0.101803
    60  H    0.044582   0.000000   0.105863   0.006982  -0.101122   0.101800
    61  H    0.044113   0.000000  -0.082914   0.106524   0.059044   0.101387
    62  H    0.046693   0.000000  -0.096056  -0.019739   0.112944   0.102808
    63  H    0.043918   0.000000  -0.053824  -0.003124   0.135861   0.100969
    64  H    0.041572   0.000000   0.062410  -0.002477  -0.127923   0.099886
    65  H    0.043445   0.000000  -0.029538   0.026145   0.140639   0.100510
    66  H    0.043449   0.000000   0.036797  -0.014277  -0.140631   0.100513
    67  H    0.041570   0.000000  -0.030741   0.054369   0.127921   0.099885
    68  H    0.043916   0.000000   0.021828  -0.049279  -0.135869   0.100966
    69  H    0.044107   0.000000   0.132634  -0.025068  -0.059048   0.101383
    70  H    0.046692   0.000000   0.026335  -0.094412  -0.112983   0.102807
    71  H    0.044580   0.000000  -0.105882  -0.006963   0.101101   0.101800
    72  H    0.044583   0.000000  -0.042201   0.097344   0.101106   0.101802
       Tot  -0.000078   0.000000  -0.000001   0.000020   0.000009  -0.000078
 Hirshfeld charges with hydrogens summed into heavy atoms:
              Q-H       Q-CM5   
     1  C   -0.002939  -0.007070
     2  C   -0.002758  -0.007119
     3  C    0.004628   0.007845
     4  C    0.000323   0.004572
     5  C   -0.005141  -0.012239
     6  C   -0.001467  -0.005974
     7  C    0.001910   0.010235
     8  C    0.003775   0.011035
     9  C   -0.004112  -0.011229
    10  C   -0.002657  -0.009917
    11  C    0.004059   0.011229
    12  C    0.004043   0.011213
    13  C   -0.002662  -0.009922
    14  C   -0.004112  -0.011228
    15  C    0.003771   0.011031
    16  C    0.001901   0.010228
    17  C   -0.001474  -0.005980
    18  C   -0.005146  -0.012244
    19  C    0.004626   0.007843
    20  C    0.000302   0.004553
    21  C   -0.002760  -0.007122
    22  C   -0.002945  -0.007077
    23  C    0.004411   0.008663
    24  C    0.004386   0.008637
    25  C   -0.002756  -0.007117
    26  C   -0.002938  -0.007070
    27  C    0.000320   0.004570
    28  C    0.004628   0.007845
    29  C   -0.001468  -0.005975
    30  C   -0.005141  -0.012239
    31  C    0.003775   0.011035
    32  C    0.001907   0.010233
    33  C   -0.002658  -0.009918
    34  C   -0.004112  -0.011229
    35  C    0.004043   0.011213
    36  C    0.004059   0.011229
    37  C   -0.004112  -0.011229
    38  C   -0.002661  -0.009921
    39  C    0.001904   0.010231
    40  C    0.003772   0.011031
    41  C   -0.005146  -0.012244
    42  C   -0.001472  -0.005979
    43  C    0.000301   0.004552
    44  C    0.004626   0.007843
    45  C   -0.002947  -0.007078
    46  C   -0.002762  -0.007124
    47  C    0.004385   0.008637
    48  C    0.004410   0.008662
 
 EQQ=  0.00000000000     EQD=  0.00000000000     EDD= 0.201821595184E-01
 EQQ+QD+DD= 0.201821595184E-01
 
 1\1\GINC-CU14\SP\RB3LYP\6-311G(d)\C48H24\WANG\23-May-2025\0\\# B3LYP/6
 -311G* Pop=Hirshfeld NOSYMM\\From ../..//2x4_1_1_CNB_opt.out\\0,1\C,0,
 4.287315,-1.756067,1.149959\C,0,3.823787,-0.658589,1.914442\C,0,5.5185
 48,-0.269059,-0.339595\C,0,5.324461,-1.511881,0.160868\C,0,4.688461,0.
 829557,0.105082\C,0,4.021612,0.701547,1.38884\C,0,3.312953,1.799335,1.
 859632\C,0,4.358712,1.871192,-0.74263\C,0,3.297016,2.759335,-0.412944\
 C,0,2.88816,2.830136,0.975222\C,0,1.84558,3.708503,1.323842\C,0,2.4715
 57,3.326603,-1.394694\C,0,1.213929,3.852988,-1.046142\C,0,0.964088,4.1
 84173,0.342046\C,0,-0.310891,4.723031,0.671652\C,0,0.103057,3.760222,-
 1.930654\C,0,-1.197298,3.889448,-1.460082\C,0,-1.388099,4.540914,-0.17
 6264\C,0,-2.74455,4.777319,0.268491\C,0,-3.761476,4.037107,-0.232254\C
 ,0,-2.316913,3.092587,-1.986167\C,0,-3.504983,3.003384,-1.221767\C,0,-
 2.849012,0.95606,-3.013822\C,0,-2.131706,2.130901,-3.01373\C,0,-3.7893
 82,0.681336,-1.986575\C,0,-4.252858,1.778781,-1.222008\C,0,-5.289888,1
 .53456,-0.232836\C,0,-5.484009,0.291696,0.267541\C,0,-3.987149,-0.6787
 97,-1.461001\C,0,-4.654012,-0.806906,-0.177282\C,0,-4.324266,-1.848626
 ,0.670365\C,0,-3.278394,-1.776529,-1.931834\C,0,-2.853634,-2.807377,-1
 .047504\C,0,-3.262576,-2.736726,0.340641\C,0,-2.437137,-3.304084,1.322
 393\C,0,-1.811006,-3.685709,-1.396148\C,0,-0.929576,-4.161441,-0.41435
 9\C,0,-1.179496,-3.830394,0.973853\C,0,-0.068644,-3.737654,1.858428\C,
 0,0.345442,-4.70027,-0.743939\C,0,1.422593,-4.518151,0.104024\C,0,1.23
 1717,-3.866745,1.387879\C,0,3.795982,-4.014371,0.160167\C,0,2.779076,-
 4.754546,-0.340657\C,0,3.539427,-2.980645,1.149675\C,0,2.3513,-3.06983
 3,1.913992\C,0,2.165957,-2.108082,2.94145\C,0,2.883269,-0.933233,2.941
 558\H,0,6.217904,-0.10061,-1.154867\H,0,5.884776,-2.346895,-0.245913\H
 ,0,2.850831,1.774471,2.841868\H,0,4.772726,1.889913,-1.748616\H,0,1.57
 7667,3.828123,2.371527\H,0,2.700451,3.143195,-2.442406\H,0,-0.483487,5
 .099637,1.677708\H,0,0.292077,3.337685,-2.912839\H,0,-2.914192,5.47599
 4,1.084099\H,0,-4.760164,4.153763,0.174782\H,0,-2.582721,0.183989,-3.7
 28697\H,0,-1.323165,2.246879,-3.728469\H,0,-5.850071,2.369568,0.174136
 \H,0,-6.183282,0.123242,1.082882\H,0,-4.738274,-1.867379,1.676353\H,0,
 -2.816207,-1.751548,-2.914035\H,0,-2.666089,-3.120749,2.370105\H,0,-1.
 54306,-3.805245,-2.443834\H,0,-0.257736,-3.315229,2.840648\H,0,0.51807
 2,-5.076866,-1.749992\H,0,4.794693,-4.13102,-0.246814\H,0,2.948748,-5.
 453199,-1.156278\H,0,1.357271,-2.223955,3.656041\H,0,2.616811,-0.16109
 3,3.656292\\Version=ES64L-G16RevB.01\HF=-1843.8638401\RMSD=7.292e-09\D
 ipole=0.0000218,0.0000306,0.0000136\Quadrupole=-1.8692316,-9.8965519,1
 1.7657835,-7.8041349,-16.8727273,10.3003002\PG=C01 [X(C48H24)]\\@


 WORK FAITHFULLY FOR EIGHT HOURS A DAY AND DON'T WORRY.
 IN TIME YOU MAY BECOME BOSS AND WORK TWELVE HOURS A DAY
 AND HAVE ALL THE WORRY.
 Job cpu time:       0 days  0 hours 32 minutes 18.4 seconds.
 Elapsed time:       0 days  0 hours  1 minutes 48.7 seconds.
 File lengths (MBytes):  RWF=    476 Int=      0 D2E=      0 Chk=     52 Scr=      1
 Normal termination of Gaussian 16 at Fri May 23 18:41:02 2025.
