 Entering Gaussian System, Link 0=g16
 Initial command:
 /opt/software/g16/l1.exe "/tmp/6_6_arm3nCNB_sgp-24879.tmp/Gau-171514.inp" -scrdir="/tmp/6_6_arm3nCNB_sgp-24879.tmp/"
 Entering Link 1 = /opt/software/g16/l1.exe PID=    171515.
  
 Copyright (c) 1988-2017, Gaussian, Inc.  All Rights Reserved.
  
 This is part of the Gaussian(R) 16 program.  It is based on
 the Gaussian(R) 09 system (copyright 2009, Gaussian, Inc.),
 the Gaussian(R) 03 system (copyright 2003, Gaussian, Inc.),
 the Gaussian(R) 98 system (copyright 1998, Gaussian, Inc.),
 the Gaussian(R) 94 system (copyright 1995, Gaussian, Inc.),
 the Gaussian 92(TM) system (copyright 1992, Gaussian, Inc.),
 the Gaussian 90(TM) system (copyright 1990, Gaussian, Inc.),
 the Gaussian 88(TM) system (copyright 1988, Gaussian, Inc.),
 the Gaussian 86(TM) system (copyright 1986, Carnegie Mellon
 University), and the Gaussian 82(TM) system (copyright 1983,
 Carnegie Mellon University). Gaussian is a federally registered
 trademark of Gaussian, Inc.
  
 This software contains proprietary and confidential information,
 including trade secrets, belonging to Gaussian, Inc.
  
 This software is provided under written license and may be
 used, copied, transmitted, or stored only in accord with that
 written license.
  
 The following legend is applicable only to US Government
 contracts under FAR:
  
                    RESTRICTED RIGHTS LEGEND
  
 Use, reproduction and disclosure by the US Government is
 subject to restrictions as set forth in subparagraphs (a)
 and (c) of the Commercial Computer Software - Restricted
 Rights clause in FAR 52.227-19.
  
 Gaussian, Inc.
 340 Quinnipiac St., Bldg. 40, Wallingford CT 06492
  
  
 ---------------------------------------------------------------
 Warning -- This program may not be used in any manner that
 competes with the business of Gaussian, Inc. or will provide
 assistance to any competitor of Gaussian, Inc.  The licensee
 of this program is prohibited from giving any competitor of
 Gaussian, Inc. access to this program.  By using this program,
 the user acknowledges that Gaussian, Inc. is engaged in the
 business of creating and licensing software in the field of
 computational chemistry and represents and warrants to the
 licensee that it is not a competitor of Gaussian, Inc. and that
 it will not use this program in any manner prohibited above.
 ---------------------------------------------------------------
  

 Cite this work as:
 Gaussian 16, Revision B.01,
 M. J. Frisch, G. W. Trucks, H. B. Schlegel, G. E. Scuseria, 
 M. A. Robb, J. R. Cheeseman, G. Scalmani, V. Barone, 
 G. A. Petersson, H. Nakatsuji, X. Li, M. Caricato, A. V. Marenich, 
 J. Bloino, B. G. Janesko, R. Gomperts, B. Mennucci, H. P. Hratchian, 
 J. V. Ortiz, A. F. Izmaylov, J. L. Sonnenberg, D. Williams-Young, 
 F. Ding, F. Lipparini, F. Egidi, J. Goings, B. Peng, A. Petrone, 
 T. Henderson, D. Ranasinghe, V. G. Zakrzewski, J. Gao, N. Rega, 
 G. Zheng, W. Liang, M. Hada, M. Ehara, K. Toyota, R. Fukuda, 
 J. Hasegawa, M. Ishida, T. Nakajima, Y. Honda, O. Kitao, H. Nakai, 
 T. Vreven, K. Throssell, J. A. Montgomery, Jr., J. E. Peralta, 
 F. Ogliaro, M. J. Bearpark, J. J. Heyd, E. N. Brothers, K. N. Kudin, 
 V. N. Staroverov, T. A. Keith, R. Kobayashi, J. Normand, 
 K. Raghavachari, A. P. Rendell, J. C. Burant, S. S. Iyengar, 
 J. Tomasi, M. Cossi, J. M. Millam, M. Klene, C. Adamo, R. Cammi, 
 J. W. Ochterski, R. L. Martin, K. Morokuma, O. Farkas, 
 J. B. Foresman, and D. J. Fox, Gaussian, Inc., Wallingford CT, 2016.
 
 ******************************************
 Gaussian 16:  ES64L-G16RevB.01 20-Dec-2017
                21-May-2025 
 ******************************************
 %nproc=28
 Will use up to   28 processors via shared memory.
 -------------------------------------------
 # B3LYP/6-311G* Pop=(NBO6,Hirshfeld) NOSYMM
 -------------------------------------------
 1/38=1,172=1/1;
 2/12=2,15=1,17=6,18=5,40=1/2;
 3/5=4,6=6,7=1,11=2,25=1,30=1,74=-5/1,2,3;
 4//1;
 5/5=2,38=5/2;
 6/7=2,8=2,9=2,10=2,28=1,40=1,79=1,113=1,114=1,124=3103/1,12;
 99/5=1,9=1/99;
 -------------------------------
 From ../../6_6_arm3nCNB_opt.out
 -------------------------------
 Symbolic Z-matrix:
 Charge =  0 Multiplicity = 1
 6                     3.86101  -1.47272  -1.81132 
 6                     4.09106  -0.80976  -0.54725 
 6                     4.14957   0.60455  -3.04134 
 6                     4.12653  -0.74688  -3.04128 
 6                     3.90908   1.33919  -1.81146 
 6                     4.11645   0.66888  -0.5473 
 6                     3.95947   1.42087   0.61288 
 6                     3.2783    2.57484  -1.84024 
 6                     2.74591   3.13932  -0.6538 
 6                     3.23201   2.63661   0.60027 
 6                     2.68627   3.18816   1.78666 
 6                     1.55575   3.90779  -0.66635 
 6                     0.80975   4.09066   0.49397 
 6                     1.47275   3.8607    1.758 
 6                     0.74691   4.12587   2.98797 
 6                    -0.60454   4.14891   2.98805 
 6                    -0.66885   4.11603   0.49403 
 6                    -1.33917   3.90875   1.75816 
 6                    -2.57498   3.27814   1.78691 
 6                    -1.42085   3.95903  -0.66619 
 6                    -2.63665   3.23177  -0.65357 
 6                    -3.1395    2.74584   0.60051 
 6                    -3.90816   1.55573   0.61307 
 6                    -3.18831   2.68607  -1.83998 
 6                    -3.86103   1.47272  -1.81128 
 6                    -4.09107   0.80976  -0.5472 
 6                    -4.14961  -0.60455  -3.04129 
 6                    -4.12657   0.74687  -3.04123 
 6                    -3.9091   -1.3392   -1.81141 
 6                    -4.11646  -0.66888  -0.54725 
 6                    -3.95947  -1.42087   0.61293 
 6                    -3.27833  -2.57485  -1.8402 
 6                    -2.74592  -3.13933  -0.65377 
 6                    -3.23201  -2.63661   0.60031 
 6                    -2.68626  -3.18816   1.7867 
 6                    -1.55576  -3.9078   -0.66632 
 6                    -0.80975  -4.09066   0.49398 
 6                    -1.47274  -3.8607    1.75802 
 6                    -0.74689  -4.12587   2.98799 
 6                     0.60457  -4.14891   2.98805 
 6                     0.66885  -4.11603   0.49403 
 6                     1.33919  -3.90875   1.75815 
 6                     2.57499  -3.27814   1.78689 
 6                     1.42083  -3.95904  -0.6662 
 6                     2.63663  -3.23178  -0.6536 
 6                     3.1395   -2.74584   0.60048 
 6                     3.90816  -1.55574   0.61302 
 6                     3.18829  -2.68608  -1.84002 
 1                     4.23121   1.16241  -3.97105 
 1                     4.18911  -1.3073   -3.97092 
 1                     4.16428   0.97871   1.58349 
 1                     3.01207   3.00941  -2.80169 
 1                     3.11157   2.90735   2.74811 
 1                     1.12071   4.12747  -1.63691 
 1                     1.30729   4.18806   3.91768 
 1                    -1.16236   4.23015   3.91782 
 1                    -3.00952   3.01191   2.74838 
 1                    -0.97864   4.16378  -1.63679 
 1                    -4.12781   1.12071   1.58364 
 1                    -2.90748   3.11136  -2.80143 
 1                    -4.23126  -1.16242  -3.971 
 1                    -4.18916   1.30729  -3.97088 
 1                    -4.16427  -0.97871   1.58353 
 1                    -3.0121   -3.00942  -2.80165 
 1                    -3.11155  -2.90736   2.74815 
 1                    -1.12073  -4.12747  -1.63689 
 1                    -1.30725  -4.18806   3.9177 
 1                     1.1624   -4.23015   3.91781 
 1                     3.00955  -3.01191   2.74835 
 1                     0.97862  -4.16378  -1.63679 
 1                     4.12782  -1.12071   1.5836 
 1                     2.90744  -3.11137  -2.80146 
 
 Symmetry turned off by external request.
 Stoichiometry    C48H24
 Framework group  C1[X(C48H24)]
 Deg. of freedom   210
 Full point group                 C1      NOp   1
                          Input orientation:                          
 ---------------------------------------------------------------------
 Center     Atomic      Atomic             Coordinates (Angstroms)
 Number     Number       Type             X           Y           Z
 ---------------------------------------------------------------------
      1          6           0        3.861007   -1.472724   -1.811316
      2          6           0        4.091056   -0.809763   -0.547245
      3          6           0        4.149569    0.604545   -3.041339
      4          6           0        4.126532   -0.746881   -3.041276
      5          6           0        3.909078    1.339190   -1.811456
      6          6           0        4.116452    0.668879   -0.547301
      7          6           0        3.959474    1.420868    0.612883
      8          6           0        3.278303    2.574841   -1.840241
      9          6           0        2.745910    3.139325   -0.653802
     10          6           0        3.232012    2.636610    0.600268
     11          6           0        2.686274    3.188162    1.786662
     12          6           0        1.555747    3.907793   -0.666346
     13          6           0        0.809753    4.090659    0.493965
     14          6           0        1.472752    3.860695    1.757997
     15          6           0        0.746914    4.125868    2.987974
     16          6           0       -0.604542    4.148906    2.988047
     17          6           0       -0.668847    4.116029    0.494033
     18          6           0       -1.339172    3.908751    1.758159
     19          6           0       -2.574979    3.278139    1.786910
     20          6           0       -1.420847    3.959033   -0.666191
     21          6           0       -2.636646    3.231772   -0.653571
     22          6           0       -3.139501    2.745838    0.600514
     23          6           0       -3.908158    1.555732    0.613066
     24          6           0       -3.188313    2.686070   -1.839984
     25          6           0       -3.861033    1.472717   -1.811275
     26          6           0       -4.091068    0.809757   -0.547200
     27          6           0       -4.149608   -0.604554   -3.041292
     28          6           0       -4.126571    0.746873   -3.041231
     29          6           0       -3.909104   -1.339196   -1.811410
     30          6           0       -4.116464   -0.668884   -0.547254
     31          6           0       -3.959473   -1.420871    0.612929
     32          6           0       -3.278329   -2.574848   -1.840201
     33          6           0       -2.745923   -3.139330   -0.653767
     34          6           0       -3.232011   -2.636614    0.600308
     35          6           0       -2.686260   -3.188164    1.786696
     36          6           0       -1.555760   -3.907798   -0.666324
     37          6           0       -0.809753   -4.090663    0.493979
     38          6           0       -1.472738   -3.860697    1.758019
     39          6           0       -0.746886   -4.125868    2.987988
     40          6           0        0.604570   -4.148907    2.988046
     41          6           0        0.668846   -4.116033    0.494031
     42          6           0        1.339186   -3.908753    1.758149
     43          6           0        2.574994   -3.278141    1.786886
     44          6           0        1.420833   -3.959039   -0.666201
     45          6           0        2.636633   -3.231777   -0.653596
     46          6           0        3.139502   -2.745841    0.600483
     47          6           0        3.908159   -1.555736    0.613024
     48          6           0        3.188287   -2.686077   -1.840016
     49          1           0        4.231206    1.162408   -3.971047
     50          1           0        4.189113   -1.307303   -3.970922
     51          1           0        4.164280    0.978709    1.583485
     52          1           0        3.012066    3.009411   -2.801690
     53          1           0        3.111571    2.907354    2.748112
     54          1           0        1.120706    4.127467   -1.636909
     55          1           0        1.307289    4.188060    3.917675
     56          1           0       -1.162359    4.230149    3.917817
     57          1           0       -3.009524    3.011913    2.748375
     58          1           0       -0.978639    4.163776   -1.636785
     59          1           0       -4.127809    1.120707    1.583640
     60          1           0       -2.907477    3.111361   -2.801430
     61          1           0       -4.231256   -1.162417   -3.970998
     62          1           0       -4.189163    1.307293   -3.970877
     63          1           0       -4.164269   -0.978711    1.583533
     64          1           0       -3.012103   -3.009419   -2.801653
     65          1           0       -3.111546   -2.907355    2.748150
     66          1           0       -1.120729   -4.127474   -1.636891
     67          1           0       -1.307251   -4.188059    3.917695
     68          1           0        1.162397   -4.230148    3.917810
     69          1           0        3.009549   -3.011914    2.748346
     70          1           0        0.978616   -4.163782   -1.636791
     71          1           0        4.127821   -1.120709    1.583595
     72          1           0        2.907441   -3.111369   -2.801458
 ---------------------------------------------------------------------
 Rotational constants (GHZ):           0.0717239           0.0717144           0.0482119
 Standard basis: 6-311G(d) (5D, 7F)
   936 basis functions,  1656 primitive gaussians,   984 cartesian basis functions
   156 alpha electrons      156 beta electrons
       nuclear repulsion energy      5362.9341985747 Hartrees.
 NAtoms=   72 NActive=   72 NUniq=   72 SFac= 1.00D+00 NAtFMM=   60 NAOKFM=T Big=T
 Integral buffers will be    131072 words long.
 Raffenetti 2 integral format.
 Two-electron integral symmetry is turned off.
 One-electron integrals computed using PRISM.
 NBasis=   936 RedAO= T EigKep=  6.95D-05  NBF=   936
 NBsUse=   936 1.00D-06 EigRej= -1.00D+00 NBFU=   936
 ExpMin= 1.03D-01 ExpMax= 4.56D+03 ExpMxC= 6.82D+02 IAcc=3 IRadAn=         5 AccDes= 0.00D+00
 Harris functional with IExCor=  402 and IRadAn=       5 diagonalized for initial guess.
 HarFok:  IExCor=  402 AccDes= 0.00D+00 IRadAn=         5 IDoV= 1 UseB2=F ITyADJ=14
 ICtDFT=  3500011 ScaDFX=  1.000000  1.000000  1.000000  1.000000
 FoFCou: FMM=F IPFlag=           0 FMFlag=      100000 FMFlg1=        2001
         NFxFlg=           0 DoJE=T BraDBF=F KetDBF=T FulRan=T
         wScrn=  0.000000 ICntrl=       500 IOpCl=  0 I1Cent=   200000004 NGrid=           0
         NMat0=    1 NMatS0=      1 NMatT0=    0 NMatD0=    1 NMtDS0=    0 NMtDT0=    0
 Symmetry not used in FoFCou.
 Requested convergence on RMS density matrix=1.00D-08 within 128 cycles.
 Requested convergence on MAX density matrix=1.00D-06.
 Requested convergence on             energy=1.00D-06.
 No special actions if energy rises.
 Integral accuracy reduced to 1.0D-05 until final iterations.
 Initial convergence to 1.0D-05 achieved.  Increase integral accuracy.
 SCF Done:  E(RB3LYP) =  -1843.87506415     A.U. after   14 cycles
            NFock= 14  Conv=0.60D-08     -V/T= 2.0044

 **********************************************************************

            Population analysis using the SCF Density.

 **********************************************************************

 Alpha  occ. eigenvalues --  -10.19739 -10.19739 -10.19739 -10.19739 -10.19710
 Alpha  occ. eigenvalues --  -10.19710 -10.19710 -10.19710 -10.19316 -10.19316
 Alpha  occ. eigenvalues --  -10.19316 -10.19316 -10.19277 -10.19277 -10.19277
 Alpha  occ. eigenvalues --  -10.19277 -10.19276 -10.19276 -10.19276 -10.19276
 Alpha  occ. eigenvalues --  -10.19276 -10.19275 -10.19275 -10.19275 -10.18506
 Alpha  occ. eigenvalues --  -10.18506 -10.18506 -10.18506 -10.18505 -10.18505
 Alpha  occ. eigenvalues --  -10.18505 -10.18505 -10.18405 -10.18405 -10.18405
 Alpha  occ. eigenvalues --  -10.18404 -10.18404 -10.18404 -10.18404 -10.18404
 Alpha  occ. eigenvalues --  -10.18318 -10.18318 -10.18317 -10.18317 -10.18246
 Alpha  occ. eigenvalues --  -10.18246 -10.18245 -10.18245  -0.90421  -0.89840
 Alpha  occ. eigenvalues --   -0.89840  -0.88195  -0.88106  -0.85555  -0.85555
 Alpha  occ. eigenvalues --   -0.82755  -0.82203  -0.80939  -0.80432  -0.80432
 Alpha  occ. eigenvalues --   -0.78922  -0.78922  -0.77817  -0.77791  -0.76283
 Alpha  occ. eigenvalues --   -0.75485  -0.74183  -0.74183  -0.72236  -0.72236
 Alpha  occ. eigenvalues --   -0.70281  -0.69981  -0.67500  -0.65998  -0.64853
 Alpha  occ. eigenvalues --   -0.64853  -0.62448  -0.62447  -0.62437  -0.62136
 Alpha  occ. eigenvalues --   -0.60613  -0.60613  -0.59864  -0.58848  -0.58572
 Alpha  occ. eigenvalues --   -0.57234  -0.57233  -0.54373  -0.53592  -0.53487
 Alpha  occ. eigenvalues --   -0.52849  -0.51571  -0.51571  -0.50595  -0.50595
 Alpha  occ. eigenvalues --   -0.49121  -0.49110  -0.49110  -0.47055  -0.46559
 Alpha  occ. eigenvalues --   -0.46314  -0.46288  -0.45836  -0.45835  -0.44950
 Alpha  occ. eigenvalues --   -0.44513  -0.44453  -0.44453  -0.44308  -0.43441
 Alpha  occ. eigenvalues --   -0.43312  -0.42967  -0.42966  -0.42891  -0.42337
 Alpha  occ. eigenvalues --   -0.42337  -0.42090  -0.42090  -0.41295  -0.41065
 Alpha  occ. eigenvalues --   -0.40922  -0.40922  -0.40480  -0.39977  -0.39906
 Alpha  occ. eigenvalues --   -0.38120  -0.38120  -0.36494  -0.36429  -0.35913
 Alpha  occ. eigenvalues --   -0.35803  -0.35803  -0.35176  -0.34243  -0.34242
 Alpha  occ. eigenvalues --   -0.33361  -0.33164  -0.33164  -0.32645  -0.32504
 Alpha  occ. eigenvalues --   -0.32143  -0.31919  -0.31243  -0.31243  -0.28953
 Alpha  occ. eigenvalues --   -0.28953  -0.27970  -0.27962  -0.25609  -0.25196
 Alpha  occ. eigenvalues --   -0.23363  -0.23363  -0.20793  -0.20792  -0.19317
 Alpha  occ. eigenvalues --   -0.18515
 Alpha virt. eigenvalues --   -0.09205  -0.07620  -0.06677  -0.06677  -0.03705
 Alpha virt. eigenvalues --   -0.03704  -0.02251  -0.01258  -0.01044   0.00625
 Alpha virt. eigenvalues --    0.00625   0.00719   0.02785   0.03223   0.03224
 Alpha virt. eigenvalues --    0.03822   0.04041   0.04561   0.04562   0.04901
 Alpha virt. eigenvalues --    0.05258   0.05259   0.05931   0.06103   0.07238
 Alpha virt. eigenvalues --    0.07342   0.07810   0.08376   0.08376   0.08833
 Alpha virt. eigenvalues --    0.08834   0.10447   0.10592   0.11110   0.11111
 Alpha virt. eigenvalues --    0.12384   0.12813   0.13520   0.13521   0.13525
 Alpha virt. eigenvalues --    0.14049   0.15264   0.15266   0.15539   0.17334
 Alpha virt. eigenvalues --    0.17334   0.17926   0.18341   0.20105   0.20797
 Alpha virt. eigenvalues --    0.20797   0.21098   0.22106   0.23123   0.23123
 Alpha virt. eigenvalues --    0.23731   0.24143   0.24750   0.24751   0.24911
 Alpha virt. eigenvalues --    0.24913   0.25279   0.26115   0.26700   0.26887
 Alpha virt. eigenvalues --    0.27842   0.28664   0.28703   0.28704   0.28713
 Alpha virt. eigenvalues --    0.29063   0.29064   0.29577   0.29875   0.29876
 Alpha virt. eigenvalues --    0.30904   0.31812   0.31851   0.32512   0.32513
 Alpha virt. eigenvalues --    0.33004   0.33826   0.33860   0.33860   0.34856
 Alpha virt. eigenvalues --    0.34904   0.34904   0.35982   0.36306   0.36306
 Alpha virt. eigenvalues --    0.36309   0.36680   0.36680   0.36882   0.37221
 Alpha virt. eigenvalues --    0.37672   0.37828   0.38480   0.38481   0.38577
 Alpha virt. eigenvalues --    0.38845   0.38846   0.38998   0.39193   0.39842
 Alpha virt. eigenvalues --    0.39960   0.39961   0.40549   0.40639   0.40692
 Alpha virt. eigenvalues --    0.40693   0.41580   0.42095   0.42095   0.42122
 Alpha virt. eigenvalues --    0.42736   0.42749   0.42917   0.42981   0.42981
 Alpha virt. eigenvalues --    0.43100   0.43391   0.43392   0.43455   0.43923
 Alpha virt. eigenvalues --    0.44362   0.44666   0.44698   0.44699   0.45353
 Alpha virt. eigenvalues --    0.45365   0.45366   0.45375   0.46016   0.46324
 Alpha virt. eigenvalues --    0.46324   0.46374   0.47307   0.47308   0.47494
 Alpha virt. eigenvalues --    0.47666   0.47728   0.47746   0.47894   0.47895
 Alpha virt. eigenvalues --    0.48181   0.48182   0.48586   0.48662   0.48950
 Alpha virt. eigenvalues --    0.48951   0.49666   0.50096   0.50096   0.50249
 Alpha virt. eigenvalues --    0.50534   0.51327   0.51645   0.51646   0.52332
 Alpha virt. eigenvalues --    0.52333   0.53057   0.53275   0.54271   0.54271
 Alpha virt. eigenvalues --    0.54429   0.54472   0.54473   0.54572   0.55218
 Alpha virt. eigenvalues --    0.55218   0.56144   0.56784   0.57059   0.57059
 Alpha virt. eigenvalues --    0.57380   0.58171   0.58407   0.59007   0.59007
 Alpha virt. eigenvalues --    0.59017   0.59503   0.60486   0.60486   0.60681
 Alpha virt. eigenvalues --    0.61288   0.61288   0.61449   0.61750   0.62509
 Alpha virt. eigenvalues --    0.62871   0.62872   0.63377   0.63423   0.63564
 Alpha virt. eigenvalues --    0.63566   0.63867   0.63868   0.64160   0.64954
 Alpha virt. eigenvalues --    0.65691   0.66054   0.66055   0.66515   0.66810
 Alpha virt. eigenvalues --    0.67344   0.67345   0.67702   0.67702   0.68062
 Alpha virt. eigenvalues --    0.68111   0.68145   0.68309   0.69277   0.69649
 Alpha virt. eigenvalues --    0.69649   0.70152   0.70152   0.70574   0.71121
 Alpha virt. eigenvalues --    0.71491   0.71496   0.71499   0.72500   0.73598
 Alpha virt. eigenvalues --    0.73906   0.73907   0.73936   0.74728   0.75279
 Alpha virt. eigenvalues --    0.75729   0.75730   0.76103   0.76293   0.76703
 Alpha virt. eigenvalues --    0.76704   0.77719   0.78162   0.78216   0.78217
 Alpha virt. eigenvalues --    0.78446   0.78701   0.79303   0.79305   0.79462
 Alpha virt. eigenvalues --    0.79463   0.79629   0.80329   0.80405   0.80853
 Alpha virt. eigenvalues --    0.80853   0.81051   0.82254   0.82761   0.82762
 Alpha virt. eigenvalues --    0.83075   0.84074   0.84831   0.84832   0.84847
 Alpha virt. eigenvalues --    0.85052   0.85781   0.85784   0.86492   0.86492
 Alpha virt. eigenvalues --    0.86587   0.88073   0.88664   0.89611   0.89726
 Alpha virt. eigenvalues --    0.89775   0.89777   0.90811   0.91710   0.91711
 Alpha virt. eigenvalues --    0.93166   0.93167   0.93369   0.94106   0.94279
 Alpha virt. eigenvalues --    0.95708   0.95712   0.97247   0.97912   0.97913
 Alpha virt. eigenvalues --    0.97980   0.98227   0.98856   0.98857   0.99700
 Alpha virt. eigenvalues --    1.00038   1.00134   1.01866   1.02727   1.03022
 Alpha virt. eigenvalues --    1.03124   1.03735   1.03737   1.03829   1.04540
 Alpha virt. eigenvalues --    1.04542   1.04902   1.06179   1.06182   1.07570
 Alpha virt. eigenvalues --    1.07933   1.07937   1.08308   1.08595   1.08595
 Alpha virt. eigenvalues --    1.09470   1.09859   1.10294   1.10297   1.11153
 Alpha virt. eigenvalues --    1.11155   1.11424   1.11426   1.12424   1.12600
 Alpha virt. eigenvalues --    1.13122   1.13790   1.13794   1.13842   1.15099
 Alpha virt. eigenvalues --    1.15835   1.16601   1.16603   1.17579   1.17579
 Alpha virt. eigenvalues --    1.17601   1.18670   1.19949   1.20052   1.20054
 Alpha virt. eigenvalues --    1.20759   1.21120   1.21850   1.22768   1.22770
 Alpha virt. eigenvalues --    1.24170   1.24785   1.26506   1.26509   1.27977
 Alpha virt. eigenvalues --    1.27979   1.30398   1.31072   1.31072   1.31351
 Alpha virt. eigenvalues --    1.32147   1.32492   1.34069   1.34548   1.34548
 Alpha virt. eigenvalues --    1.34959   1.35187   1.38640   1.38641   1.39936
 Alpha virt. eigenvalues --    1.40705   1.40798   1.41685   1.41685   1.41809
 Alpha virt. eigenvalues --    1.41980   1.41981   1.42361   1.44087   1.44947
 Alpha virt. eigenvalues --    1.44949   1.45912   1.46082   1.46432   1.46432
 Alpha virt. eigenvalues --    1.47175   1.47526   1.47527   1.47603   1.48304
 Alpha virt. eigenvalues --    1.48305   1.48939   1.49249   1.49743   1.50124
 Alpha virt. eigenvalues --    1.51118   1.51742   1.51743   1.51817   1.52833
 Alpha virt. eigenvalues --    1.52833   1.52907   1.53748   1.54567   1.54835
 Alpha virt. eigenvalues --    1.54837   1.55884   1.56321   1.56322   1.56619
 Alpha virt. eigenvalues --    1.57213   1.58158   1.58275   1.58276   1.59866
 Alpha virt. eigenvalues --    1.60668   1.60671   1.61090   1.61779   1.61780
 Alpha virt. eigenvalues --    1.62601   1.65118   1.65244   1.65245   1.65527
 Alpha virt. eigenvalues --    1.67590   1.67851   1.67868   1.69108   1.69116
 Alpha virt. eigenvalues --    1.69117   1.70732   1.71517   1.71830   1.71831
 Alpha virt. eigenvalues --    1.72435   1.72436   1.74257   1.74258   1.75234
 Alpha virt. eigenvalues --    1.76499   1.77389   1.77721   1.78877   1.78970
 Alpha virt. eigenvalues --    1.78973   1.79168   1.79798   1.80159   1.81619
 Alpha virt. eigenvalues --    1.81620   1.82414   1.82415   1.83126   1.83165
 Alpha virt. eigenvalues --    1.85396   1.85398   1.86267   1.86267   1.87104
 Alpha virt. eigenvalues --    1.89030   1.89530   1.89626   1.89752   1.90049
 Alpha virt. eigenvalues --    1.90051   1.91039   1.91621   1.91622   1.91866
 Alpha virt. eigenvalues --    1.92586   1.92587   1.92806   1.92938   1.93521
 Alpha virt. eigenvalues --    1.94668   1.94908   1.94908   1.95874   1.97187
 Alpha virt. eigenvalues --    1.98038   1.98041   1.98716   1.99298   1.99300
 Alpha virt. eigenvalues --    1.99454   2.00876   2.01958   2.01958   2.04134
 Alpha virt. eigenvalues --    2.04729   2.04729   2.05751   2.05800   2.06017
 Alpha virt. eigenvalues --    2.06018   2.06053   2.07193   2.07943   2.08896
 Alpha virt. eigenvalues --    2.08957   2.08960   2.09665   2.11330   2.11332
 Alpha virt. eigenvalues --    2.12045   2.12985   2.13507   2.13508   2.15672
 Alpha virt. eigenvalues --    2.15718   2.15967   2.15969   2.16405   2.18676
 Alpha virt. eigenvalues --    2.18977   2.19178   2.19179   2.20132   2.20133
 Alpha virt. eigenvalues --    2.21016   2.21986   2.23493   2.23494   2.23603
 Alpha virt. eigenvalues --    2.24768   2.25427   2.26514   2.26514   2.27865
 Alpha virt. eigenvalues --    2.29707   2.31291   2.32111   2.32113   2.34722
 Alpha virt. eigenvalues --    2.34917   2.34917   2.35819   2.36415   2.38503
 Alpha virt. eigenvalues --    2.38503   2.38596   2.38621   2.38851   2.39710
 Alpha virt. eigenvalues --    2.39710   2.41755   2.43253   2.43253   2.43542
 Alpha virt. eigenvalues --    2.43542   2.44144   2.45018   2.45774   2.46431
 Alpha virt. eigenvalues --    2.46952   2.47785   2.47788   2.48087   2.48087
 Alpha virt. eigenvalues --    2.48845   2.49000   2.50306   2.50308   2.51319
 Alpha virt. eigenvalues --    2.52152   2.52804   2.55236   2.55237   2.56336
 Alpha virt. eigenvalues --    2.57177   2.57903   2.58824   2.58825   2.59297
 Alpha virt. eigenvalues --    2.61691   2.61693   2.62994   2.62996   2.63029
 Alpha virt. eigenvalues --    2.63272   2.63812   2.66279   2.66280   2.66284
 Alpha virt. eigenvalues --    2.66694   2.68707   2.69058   2.69058   2.69538
 Alpha virt. eigenvalues --    2.70421   2.70421   2.70880   2.71232   2.74895
 Alpha virt. eigenvalues --    2.75278   2.76390   2.76390   2.78935   2.78936
 Alpha virt. eigenvalues --    2.79040   2.80696   2.82031   2.82032   2.82300
 Alpha virt. eigenvalues --    2.83030   2.85174   2.87166   2.87168   2.88177
 Alpha virt. eigenvalues --    2.92969   2.93759   2.93760   2.94155   2.94425
 Alpha virt. eigenvalues --    2.94558   2.95220   2.95221   2.98064   2.98066
 Alpha virt. eigenvalues --    2.98877   2.99339   2.99959   2.99960   3.00767
 Alpha virt. eigenvalues --    3.01219   3.01603   3.04642   3.04642   3.05418
 Alpha virt. eigenvalues --    3.08635   3.08737   3.08743   3.08805   3.08991
 Alpha virt. eigenvalues --    3.08992   3.10238   3.10424   3.12189   3.12834
 Alpha virt. eigenvalues --    3.13048   3.13050   3.13555   3.13809   3.13811
 Alpha virt. eigenvalues --    3.14161   3.14756   3.14757   3.14816   3.16426
 Alpha virt. eigenvalues --    3.16753   3.20255   3.20258   3.20638   3.21376
 Alpha virt. eigenvalues --    3.21625   3.21626   3.22648   3.22650   3.22912
 Alpha virt. eigenvalues --    3.22980   3.23101   3.24895   3.25588   3.25590
 Alpha virt. eigenvalues --    3.25679   3.27384   3.28082   3.28082   3.29882
 Alpha virt. eigenvalues --    3.29977   3.30326   3.30330   3.31239   3.32614
 Alpha virt. eigenvalues --    3.34199   3.34201   3.35279   3.35383   3.38430
 Alpha virt. eigenvalues --    3.38431   3.39073   3.39537   3.40132   3.40276
 Alpha virt. eigenvalues --    3.40277   3.42121   3.42121   3.42236   3.42857
 Alpha virt. eigenvalues --    3.45708   3.45945   3.46417   3.46419   3.46489
 Alpha virt. eigenvalues --    3.48197   3.48200   3.49619   3.50830   3.50831
 Alpha virt. eigenvalues --    3.53574   3.54787   3.58227   3.63099   3.63100
 Alpha virt. eigenvalues --    3.67430   3.73445   3.74462   3.74464   3.76263
 Alpha virt. eigenvalues --    3.87712   3.88572   3.90346   3.90348   3.94281
 Alpha virt. eigenvalues --    3.94282   3.95670   3.98865   3.99339   4.00280
 Alpha virt. eigenvalues --    4.00281   4.00639   4.03759   4.11740   4.11742
 Alpha virt. eigenvalues --    4.23933   4.26038   4.39242   4.39246   4.46332
 Alpha virt. eigenvalues --    4.56701   4.58108   4.58117   4.62174   4.62495
 Alpha virt. eigenvalues --    4.67374   4.67377   4.72448   4.72850   4.77478
 Alpha virt. eigenvalues --    4.77484   4.79890  23.10786  23.19986  23.19987
 Alpha virt. eigenvalues --   23.38208  23.38968  23.54014  23.54018  23.59032
 Alpha virt. eigenvalues --   23.63732  23.68084  23.68088  23.70656  23.72888
 Alpha virt. eigenvalues --   23.72892  23.74145  23.76176  23.80579  23.83242
 Alpha virt. eigenvalues --   23.83244  23.84608  23.92966  23.95954  23.95959
 Alpha virt. eigenvalues --   23.97268  23.97768  23.97769  23.98074  23.98241
 Alpha virt. eigenvalues --   24.02867  24.03026  24.03028  24.03149  24.04407
 Alpha virt. eigenvalues --   24.04617  24.04618  24.04965  24.06214  24.06550
 Alpha virt. eigenvalues --   24.06552  24.07063  24.07074  24.07213  24.07216
 Alpha virt. eigenvalues --   24.07348  24.16174  24.16186  24.16217  24.16252
          Condensed to atoms (all electrons):
 Mulliken charges:
               1
     1  C    0.044617
     2  C    0.009110
     3  C   -0.219745
     4  C   -0.219765
     5  C    0.044618
     6  C    0.009072
     7  C   -0.226234
     8  C   -0.257559
     9  C    0.061394
    10  C    0.061344
    11  C   -0.257563
    12  C   -0.226284
    13  C    0.009098
    14  C    0.044663
    15  C   -0.219779
    16  C   -0.219757
    17  C    0.009052
    18  C    0.044668
    19  C   -0.257581
    20  C   -0.226232
    21  C    0.061319
    22  C    0.061419
    23  C   -0.226278
    24  C   -0.257542
    25  C    0.044617
    26  C    0.009110
    27  C   -0.219745
    28  C   -0.219766
    29  C    0.044617
    30  C    0.009073
    31  C   -0.226234
    32  C   -0.257558
    33  C    0.061394
    34  C    0.061344
    35  C   -0.257563
    36  C   -0.226283
    37  C    0.009099
    38  C    0.044663
    39  C   -0.219779
    40  C   -0.219757
    41  C    0.009053
    42  C    0.044667
    43  C   -0.257581
    44  C   -0.226232
    45  C    0.061319
    46  C    0.061419
    47  C   -0.226278
    48  C   -0.257542
    49  H    0.196432
    50  H    0.196432
    51  H    0.198468
    52  H    0.193589
    53  H    0.193588
    54  H    0.198476
    55  H    0.196422
    56  H    0.196422
    57  H    0.193589
    58  H    0.198469
    59  H    0.198473
    60  H    0.193586
    61  H    0.196432
    62  H    0.196432
    63  H    0.198468
    64  H    0.193589
    65  H    0.193588
    66  H    0.198476
    67  H    0.196423
    68  H    0.196422
    69  H    0.193589
    70  H    0.198469
    71  H    0.198472
    72  H    0.193586
 Sum of Mulliken charges =  -0.00000
 Mulliken charges with hydrogens summed into heavy atoms:
               1
     1  C    0.044617
     2  C    0.009110
     3  C   -0.023314
     4  C   -0.023333
     5  C    0.044618
     6  C    0.009072
     7  C   -0.027766
     8  C   -0.063970
     9  C    0.061394
    10  C    0.061344
    11  C   -0.063975
    12  C   -0.027807
    13  C    0.009098
    14  C    0.044663
    15  C   -0.023357
    16  C   -0.023335
    17  C    0.009052
    18  C    0.044668
    19  C   -0.063992
    20  C   -0.027763
    21  C    0.061319
    22  C    0.061419
    23  C   -0.027805
    24  C   -0.063956
    25  C    0.044617
    26  C    0.009110
    27  C   -0.023313
    28  C   -0.023334
    29  C    0.044617
    30  C    0.009073
    31  C   -0.027767
    32  C   -0.063969
    33  C    0.061394
    34  C    0.061344
    35  C   -0.063975
    36  C   -0.027807
    37  C    0.009099
    38  C    0.044663
    39  C   -0.023357
    40  C   -0.023335
    41  C    0.009053
    42  C    0.044667
    43  C   -0.063992
    44  C   -0.027764
    45  C    0.061319
    46  C    0.061419
    47  C   -0.027805
    48  C   -0.063956
 Electronic spatial extent (au):  <R**2>=          23701.7449
 Charge=             -0.0000 electrons
 Dipole moment (field-independent basis, Debye):
    X=             -0.0000    Y=             -0.0000    Z=             -0.0003  Tot=              0.0003
 Quadrupole moment (field-independent basis, Debye-Ang):
   XX=           -289.8449   YY=           -289.8533   ZZ=           -234.1602
   XY=              0.0004   XZ=              0.0003   YZ=              0.0000
 Traceless Quadrupole moment (field-independent basis, Debye-Ang):
   XX=            -18.5588   YY=            -18.5671   ZZ=             37.1259
   XY=              0.0004   XZ=              0.0003   YZ=              0.0000
 Octapole moment (field-independent basis, Debye-Ang**2):
  XXX=              0.0031  YYY=              0.0019  ZZZ=             18.7181  XYY=              0.0007
  XXY=              0.0006  XXZ=             43.9885  XZZ=              0.0002  YZZ=              0.0005
  YYZ=            -28.5911  XYZ=             -1.2258
 Hexadecapole moment (field-independent basis, Debye-Ang**3):
 XXXX=         -15632.8224 YYYY=         -15630.3522 ZZZZ=          -4780.1522 XXXY=              0.6555
 XXXZ=              0.0369 YYYX=             -0.7166 YYYZ=              0.0047 ZZZX=              0.0239
 ZZZY=              0.0029 XXYY=          -5197.2323 XXZZ=          -2997.6574 YYZZ=          -2993.5924
 XXYZ=              0.0015 YYXZ=              0.0123 ZZXY=              0.0559
 N-N= 5.362934198575D+03 E-N=-1.500372347378D+04  KE= 1.835856121984D+03
 There are a total of     1648496 grid points.
 ElSum from          density=      311.9998523870
 ElSum from atomic densities=      311.9994366202
 Hirshfeld populations at iteration   1 (CA, CB, DipXYZ):
               1          2          3          4          5
     1  C    3.002666   3.002666   0.021382   0.032144  -0.005265
     2  C    3.000899   3.000899   0.010278   0.038670  -0.024763
     3  C    3.021722   3.021722   0.002530   0.080358  -0.014405
     4  C    3.021722   3.021722  -0.000203  -0.080404  -0.014401
     5  C    3.002669   3.002669   0.020271  -0.032865  -0.005264
     6  C    3.000898   3.000898   0.008967  -0.039015  -0.024764
     7  C    3.019047   3.019047   0.008084  -0.003304   0.041730
     8  C    3.020066   3.020066  -0.015138   0.034843  -0.026036
     9  C    3.001405   3.001405   0.010000   0.005820   0.009022
    10  C    3.001405   3.001405   0.006178   0.009773  -0.009046
    11  C    3.020068   3.020068   0.034276  -0.016274   0.026040
    12  C    3.019040   3.019040  -0.003072   0.008177  -0.041701
    13  C    3.000899   3.000899  -0.038655   0.010274   0.024740
    14  C    3.002667   3.002667  -0.032118   0.021367   0.005256
    15  C    3.021723   3.021723   0.080376  -0.000206   0.014410
    16  C    3.021723   3.021723  -0.080332   0.002527   0.014417
    17  C    3.000899   3.000899   0.038999   0.008965   0.024742
    18  C    3.002669   3.002669   0.032837   0.020258   0.005256
    19  C    3.020065   3.020065  -0.034812  -0.015112   0.026047
    20  C    3.019047   3.019047   0.003334   0.008092  -0.041712
    21  C    3.001404   3.001404  -0.009796   0.006156   0.009027
    22  C    3.001406   3.001406  -0.005842   0.009978  -0.009043
    23  C    3.019040   3.019040  -0.008166  -0.003040   0.041718
    24  C    3.020070   3.020070   0.016299   0.034302  -0.026027
    25  C    3.002666   3.002666  -0.021382  -0.032144  -0.005265
    26  C    3.000899   3.000899  -0.010278  -0.038670  -0.024763
    27  C    3.021722   3.021722  -0.002530  -0.080358  -0.014405
    28  C    3.021722   3.021722   0.000203   0.080403  -0.014401
    29  C    3.002669   3.002669  -0.020271   0.032865  -0.005264
    30  C    3.000899   3.000899  -0.008967   0.039015  -0.024764
    31  C    3.019047   3.019047  -0.008083   0.003304   0.041730
    32  C    3.020066   3.020066   0.015138  -0.034843  -0.026036
    33  C    3.001405   3.001405  -0.009999  -0.005820   0.009023
    34  C    3.001405   3.001405  -0.006178  -0.009773  -0.009046
    35  C    3.020068   3.020068  -0.034276   0.016274   0.026040
    36  C    3.019040   3.019040   0.003071  -0.008177  -0.041701
    37  C    3.000899   3.000899   0.038655  -0.010274   0.024739
    38  C    3.002667   3.002667   0.032119  -0.021367   0.005255
    39  C    3.021723   3.021723  -0.080376   0.000206   0.014411
    40  C    3.021723   3.021723   0.080332  -0.002527   0.014417
    41  C    3.000899   3.000899  -0.038999  -0.008965   0.024743
    42  C    3.002668   3.002668  -0.032837  -0.020258   0.005257
    43  C    3.020065   3.020065   0.034813   0.015113   0.026047
    44  C    3.019047   3.019047  -0.003334  -0.008092  -0.041711
    45  C    3.001404   3.001404   0.009796  -0.006156   0.009026
    46  C    3.001406   3.001406   0.005842  -0.009978  -0.009043
    47  C    3.019040   3.019040   0.008166   0.003040   0.041718
    48  C    3.020070   3.020070  -0.016299  -0.034302  -0.026027
    49  H    0.476852   0.476852   0.010401   0.073766  -0.129631
    50  H    0.476851   0.476851   0.007883  -0.074093  -0.129624
    51  H    0.478984   0.478984   0.025333  -0.052892   0.129464
    52  H    0.478348   0.478348  -0.037582   0.058829  -0.127856
    53  H    0.478351   0.478351   0.057520  -0.039552   0.127856
    54  H    0.478984   0.478984  -0.052007   0.027108  -0.129458
    55  H    0.476853   0.476853   0.074081   0.007826   0.129631
    56  H    0.476854   0.476854  -0.073754   0.010343   0.129639
    57  H    0.478350   0.478350  -0.058823  -0.037581   0.127856
    58  H    0.478984   0.478984   0.052896   0.025324  -0.129462
    59  H    0.478984   0.478984  -0.027103  -0.052007   0.129459
    60  H    0.478350   0.478350   0.039556   0.057520  -0.127856
    61  H    0.476852   0.476852  -0.010403  -0.073766  -0.129631
    62  H    0.476851   0.476851  -0.007885   0.074093  -0.129624
    63  H    0.478984   0.478984  -0.025331   0.052892   0.129464
    64  H    0.478348   0.478348   0.037581  -0.058829  -0.127856
    65  H    0.478351   0.478351  -0.057518   0.039552   0.127857
    66  H    0.478984   0.478984   0.052006  -0.027108  -0.129459
    67  H    0.476853   0.476853  -0.074080  -0.007826   0.129632
    68  H    0.476854   0.476854   0.073756  -0.010343   0.129639
    69  H    0.478350   0.478350   0.058825   0.037581   0.127856
    70  H    0.478984   0.478984  -0.052897  -0.025324  -0.129462
    71  H    0.478984   0.478984   0.027104   0.052007   0.129458
    72  H    0.478350   0.478350  -0.039557  -0.057520  -0.127856
       Tot 155.999926 155.999926  -0.000000   0.000000  -0.000004

 Dip from Atomic Chgs             -0.000001  -0.000001  -0.000102
         Total Dipole             -0.000001  -0.000001  -0.000105

 Hirshfeld charges, spin densities, dipoles, and CM5 charges using IRadAn=      5:
              Q-H        S-H        Dx         Dy         Dz        Q-CM5   
     1  C   -0.005333   0.000000   0.021382   0.032144  -0.005265  -0.012407
     2  C   -0.001798   0.000000   0.010278   0.038670  -0.024763  -0.006327
     3  C   -0.043444   0.000000   0.002530   0.080358  -0.014405  -0.096234
     4  C   -0.043444   0.000000  -0.000203  -0.080404  -0.014401  -0.096235
     5  C   -0.005337   0.000000   0.020271  -0.032865  -0.005264  -0.012412
     6  C   -0.001797   0.000000   0.008967  -0.039015  -0.024764  -0.006327
     7  C   -0.038093   0.000000   0.008084  -0.003304   0.041730  -0.088060
     8  C   -0.040133   0.000000  -0.015138   0.034843  -0.026036  -0.090002
     9  C   -0.002811   0.000000   0.010000   0.005820   0.009022  -0.010042
    10  C   -0.002809   0.000000   0.006178   0.009773  -0.009046  -0.010040
    11  C   -0.040136   0.000000   0.034276  -0.016274   0.026040  -0.090006
    12  C   -0.038080   0.000000  -0.003072   0.008177  -0.041701  -0.088047
    13  C   -0.001798   0.000000  -0.038655   0.010274   0.024740  -0.006327
    14  C   -0.005334   0.000000  -0.032118   0.021367   0.005256  -0.012408
    15  C   -0.043445   0.000000   0.080376  -0.000206   0.014410  -0.096236
    16  C   -0.043446   0.000000  -0.080332   0.002527   0.014417  -0.096237
    17  C   -0.001798   0.000000   0.038999   0.008965   0.024742  -0.006327
    18  C   -0.005337   0.000000   0.032837   0.020258   0.005256  -0.012412
    19  C   -0.040130   0.000000  -0.034812  -0.015112   0.026047  -0.090000
    20  C   -0.038095   0.000000   0.003334   0.008092  -0.041712  -0.088061
    21  C   -0.002809   0.000000  -0.009796   0.006156   0.009027  -0.010040
    22  C   -0.002811   0.000000  -0.005842   0.009978  -0.009043  -0.010043
    23  C   -0.038080   0.000000  -0.008166  -0.003040   0.041718  -0.088047
    24  C   -0.040140   0.000000   0.016299   0.034302  -0.026027  -0.090009
    25  C   -0.005333   0.000000  -0.021382  -0.032144  -0.005265  -0.012407
    26  C   -0.001798   0.000000  -0.010278  -0.038670  -0.024763  -0.006327
    27  C   -0.043444   0.000000  -0.002530  -0.080358  -0.014405  -0.096234
    28  C   -0.043444   0.000000   0.000203   0.080403  -0.014401  -0.096235
    29  C   -0.005337   0.000000  -0.020271   0.032865  -0.005264  -0.012412
    30  C   -0.001797   0.000000  -0.008967   0.039015  -0.024764  -0.006327
    31  C   -0.038093   0.000000  -0.008083   0.003304   0.041730  -0.088059
    32  C   -0.040133   0.000000   0.015138  -0.034843  -0.026036  -0.090002
    33  C   -0.002811   0.000000  -0.009999  -0.005820   0.009023  -0.010042
    34  C   -0.002809   0.000000  -0.006178  -0.009773  -0.009046  -0.010040
    35  C   -0.040136   0.000000  -0.034276   0.016274   0.026040  -0.090006
    36  C   -0.038080   0.000000   0.003071  -0.008177  -0.041701  -0.088047
    37  C   -0.001798   0.000000   0.038655  -0.010274   0.024739  -0.006327
    38  C   -0.005334   0.000000   0.032119  -0.021367   0.005255  -0.012408
    39  C   -0.043445   0.000000  -0.080376   0.000206   0.014411  -0.096236
    40  C   -0.043446   0.000000   0.080332  -0.002527   0.014417  -0.096237
    41  C   -0.001798   0.000000  -0.038999  -0.008965   0.024743  -0.006327
    42  C   -0.005337   0.000000  -0.032837  -0.020258   0.005257  -0.012412
    43  C   -0.040130   0.000000   0.034813   0.015113   0.026047  -0.090000
    44  C   -0.038095   0.000000  -0.003334  -0.008092  -0.041711  -0.088061
    45  C   -0.002808   0.000000   0.009796  -0.006156   0.009026  -0.010039
    46  C   -0.002811   0.000000   0.005842  -0.009978  -0.009043  -0.010043
    47  C   -0.038080   0.000000   0.008166   0.003040   0.041718  -0.088047
    48  C   -0.040140   0.000000  -0.016299  -0.034302  -0.026027  -0.090009
    49  H    0.046295   0.000000   0.010401   0.073766  -0.129631   0.102414
    50  H    0.046297   0.000000   0.007883  -0.074093  -0.129624   0.102416
    51  H    0.042033   0.000000   0.025333  -0.052892   0.129464   0.100284
    52  H    0.043303   0.000000  -0.037582   0.058829  -0.127856   0.100394
    53  H    0.043298   0.000000   0.057520  -0.039552   0.127856   0.100389
    54  H    0.042032   0.000000  -0.052007   0.027108  -0.129458   0.100285
    55  H    0.046294   0.000000   0.074081   0.007826   0.129631   0.102413
    56  H    0.046293   0.000000  -0.073754   0.010343   0.129639   0.102412
    57  H    0.043301   0.000000  -0.058823  -0.037581   0.127856   0.100391
    58  H    0.042031   0.000000   0.052896   0.025324  -0.129462   0.100283
    59  H    0.042032   0.000000  -0.027103  -0.052007   0.129459   0.100285
    60  H    0.043300   0.000000   0.039556   0.057520  -0.127856   0.100390
    61  H    0.046295   0.000000  -0.010403  -0.073766  -0.129631   0.102414
    62  H    0.046297   0.000000  -0.007885   0.074093  -0.129624   0.102416
    63  H    0.042033   0.000000  -0.025331   0.052892   0.129464   0.100284
    64  H    0.043303   0.000000   0.037581  -0.058829  -0.127856   0.100394
    65  H    0.043298   0.000000  -0.057518   0.039552   0.127857   0.100389
    66  H    0.042032   0.000000   0.052006  -0.027108  -0.129459   0.100285
    67  H    0.046294   0.000000  -0.074080  -0.007826   0.129632   0.102413
    68  H    0.046293   0.000000   0.073756  -0.010343   0.129639   0.102412
    69  H    0.043301   0.000000   0.058825   0.037581   0.127856   0.100391
    70  H    0.042031   0.000000  -0.052897  -0.025324  -0.129462   0.100283
    71  H    0.042032   0.000000   0.027104   0.052007   0.129458   0.100285
    72  H    0.043300   0.000000  -0.039557  -0.057520  -0.127856   0.100390
       Tot   0.000148   0.000000  -0.000000   0.000000  -0.000004   0.000148
 Hirshfeld charges with hydrogens summed into heavy atoms:
              Q-H       Q-CM5   
     1  C   -0.005333  -0.012407
     2  C   -0.001798  -0.006327
     3  C    0.002852   0.006180
     4  C    0.002853   0.006180
     5  C   -0.005337  -0.012412
     6  C   -0.001797  -0.006327
     7  C    0.003939   0.012225
     8  C    0.003170   0.010392
     9  C   -0.002811  -0.010042
    10  C   -0.002809  -0.010040
    11  C    0.003162   0.010383
    12  C    0.003952   0.012239
    13  C   -0.001798  -0.006327
    14  C   -0.005334  -0.012408
    15  C    0.002849   0.006177
    16  C    0.002847   0.006176
    17  C   -0.001798  -0.006327
    18  C   -0.005337  -0.012412
    19  C    0.003170   0.010392
    20  C    0.003937   0.012222
    21  C   -0.002809  -0.010040
    22  C   -0.002811  -0.010043
    23  C    0.003952   0.012239
    24  C    0.003160   0.010382
    25  C   -0.005333  -0.012407
    26  C   -0.001798  -0.006327
    27  C    0.002852   0.006180
    28  C    0.002853   0.006180
    29  C   -0.005337  -0.012412
    30  C   -0.001797  -0.006327
    31  C    0.003939   0.012225
    32  C    0.003171   0.010392
    33  C   -0.002811  -0.010042
    34  C   -0.002809  -0.010040
    35  C    0.003162   0.010383
    36  C    0.003952   0.012239
    37  C   -0.001798  -0.006327
    38  C   -0.005334  -0.012408
    39  C    0.002849   0.006177
    40  C    0.002847   0.006176
    41  C   -0.001798  -0.006327
    42  C   -0.005337  -0.012412
    43  C    0.003171   0.010392
    44  C    0.003937   0.012222
    45  C   -0.002808  -0.010039
    46  C   -0.002811  -0.010043
    47  C    0.003952   0.012239
    48  C    0.003160   0.010382
 
 EQQ=  0.00000000000     EQD=  0.00000000000     EDD= 0.197562317136E-01
 EQQ+QD+DD= 0.197562317136E-01
 
 Running external command "gaunbo6 R"
         input file       "/tmp/6_6_arm3nCNB_sgp-24879.tmp/Gau-171515.EIn"
         output file      "/tmp/6_6_arm3nCNB_sgp-24879.tmp/Gau-171515.EOu"
         message file     "/tmp/6_6_arm3nCNB_sgp-24879.tmp/Gau-171515.EMs"
         fchk file        "/tmp/6_6_arm3nCNB_sgp-24879.tmp/Gau-171515.EFC"
         mat. el file     "/tmp/6_6_arm3nCNB_sgp-24879.tmp/Gau-171515.EUF"

 Writing WrtUnf unformatted file "/tmp/6_6_arm3nCNB_sgp-24879.tmp/Gau-171515.EUF"
 Gaussian matrix elements                                         Version   2 NLab=11 Len12L=8 Len4L=8
 Write SHELL TO ATOM MAP                   from file     0 offset           0 length                 312 to matrix element file.
 Write SHELL TYPES                         from file     0 offset           0 length                 312 to matrix element file.
 Write NUMBER OF PRIMITIVES PER SHELL      from file     0 offset           0 length                 312 to matrix element file.
 Write PRIMITIVE EXPONENTS                 from file     0 offset           0 length                 696 to matrix element file.
 Write CONTRACTION COEFFICIENTS            from file     0 offset           0 length                 696 to matrix element file.
 Write P(S=P) CONTRACTION COEFFICIENTS     from file     0 offset           0 length                 696 to matrix element file.
 Write COORDINATES OF EACH SHELL           from file     0 offset           0 length                 936 to matrix element file.
 Write BONDS PER ATOM                      from file     0 offset           0 length                  72 to matrix element file.
 Write BONDED ATOMS                        from file     0 offset           0 length                 168 to matrix element file.
 Write BOND TYPES                          from file     0 offset           0 length                 168 to matrix element file.
 Write GAUSSIAN SCALARS                    from file   501 offset           0 to matrix element file.
 Write INTEGER ISO                         from file     0 offset           0 length                  72 to matrix element file.
 Write INTEGER SPIN                        from file     0 offset           0 length                  72 to matrix element file.
 Write REAL ZEFFECTIVE                     from file     0 offset           0 length                  72 to matrix element file.
 Write REAL GFACTOR                        from file     0 offset           0 length                  72 to matrix element file.
 Write REAL ZNUCLEAR                       from file     0 offset           0 length                  72 to matrix element file.
 Write MULLIKEN CHARGES                    from file     0 offset           0 length                  72 to matrix element file.
 Write NUCLEAR GRADIENT                    from file 10584 offset           0 length                 216 to matrix element file.
 Array NUCLEAR FORCE CONSTANTS              on  file 10585 does not exist.
 Write ELECTRIC DIPOLE MOMENT              from file     0 offset           0 length                   3 to matrix element file.
 Write NON-ADIABATIC COUPLING              from file 10810 offset           0 length                 216 to matrix element file.
 Write OVERLAP                             from file 10514 offset           0 length              438516 to matrix element file.
 Write CORE HAMILTONIAN ALPHA              from file 10515 offset           0 length              438516 to matrix element file.
 Write CORE HAMILTONIAN BETA               from file 10515 offset      438516 length              438516 to matrix element file.
 Write KINETIC ENERGY                      from file 10516 offset           0 length              438516 to matrix element file.
 Write ORTHOGONAL BASIS                    from file 10685 offset           0 length              876096 to matrix element file.
 Write DIPOLE INTEGRALS                    from file 10518 offset           0 length             1315548 to matrix element file.
 Array DIP VEL INTEGRALS                    on  file 10572 does not exist.
 Array R X DEL INTEGRALS                    on  file 10572 does not exist.
 Write ALPHA ORBITAL ENERGIES              from file     0 offset           0 length                 936 to matrix element file.
 Write ALPHA MO COEFFICIENTS               from file 10524 offset           0 length              876096 to matrix element file.
 Write ALPHA DENSITY MATRIX                from file     0 offset           0 length              438516 to matrix element file.
 Write ALPHA SCF DENSITY MATRIX            from file 10528 offset           0 length              438516 to matrix element file.
 Write ALPHA FOCK MATRIX                   from file 10536 offset           0 length              438516 to matrix element file.
 Write ALPHA SCF DENSITY                   from file     0 offset           0 length              438516 to matrix element file.
 No 2e integrals to process.
 Perform NBO analysis...

 *********************************** NBO 7.0 ***********************************
             N A T U R A L   A T O M I C   O R B I T A L   A N D
          N A T U R A L   B O N D   O R B I T A L   A N A L Y S I S
 ***************************** Yang Wang (I101673) *****************************
  (c) Copyright 1996-2019 Board of Regents of the University of Wisconsin System
      on behalf of the Theoretical Chemistry Institute.  All rights reserved.

          Cite this program [NBO 7.0.4 (28-Mar-2019)] as:

          NBO 7.0.  E. D. Glendening, J. K. Badenhoop, A. E. Reed,
          J. E. Carpenter, J. A. Bohmann, C. M. Morales, P. Karafiloglou,
          C. R. Landis, and F. Weinhold, Theoretical Chemistry Institute,
          University of Wisconsin, Madison, WI (2018)

 Filename set to /tmp/6_6_arm3nCNB_sgp-24879.tmp/Gau-171515

 Job title:  From ../../6_6_arm3nCNB_opt.out


 NATURAL POPULATIONS:  Natural atomic orbital occupancies

  NAO Atom No lang   Type(AO)    Occupancy      Energy
 -------------------------------------------------------
   1    C  1  s      Cor( 1s)     1.99999     -10.19265
   2    C  1  s      Val( 2s)     0.86569      -0.04268
   3    C  1  s      Ryd( 3s)     0.00098       0.96060
   4    C  1  s      Ryd( 4s)     0.00001      22.68232
   5    C  1  px     Val( 2p)     1.02216      -0.09209
   6    C  1  px     Ryd( 3p)     0.00118       0.70542
   7    C  1  px     Ryd( 4p)     0.00006       2.92815
   8    C  1  py     Val( 2p)     1.07234      -0.03793
   9    C  1  py     Ryd( 3p)     0.00488       1.33697
  10    C  1  py     Ryd( 4p)     0.00015       3.48182
  11    C  1  pz     Val( 2p)     1.07370      -0.02787
  12    C  1  pz     Ryd( 3p)     0.00393       1.30738
  13    C  1  pz     Ryd( 4p)     0.00016       3.54893
  14    C  1  dxy    Ryd( 3d)     0.00072       2.05011
  15    C  1  dxz    Ryd( 3d)     0.00058       1.75115
  16    C  1  dyz    Ryd( 3d)     0.00079       2.31086
  17    C  1  dx2y2  Ryd( 3d)     0.00074       1.86916
  18    C  1  dz2    Ryd( 3d)     0.00083       2.29276

  19    C  2  s      Cor( 1s)     1.99999     -10.19713
  20    C  2  s      Val( 2s)     0.86074      -0.04269
  21    C  2  s      Ryd( 3s)     0.00089       0.99556
  22    C  2  s      Ryd( 4s)     0.00001      22.80863
  23    C  2  px     Val( 2p)     1.00829      -0.10642
  24    C  2  px     Ryd( 3p)     0.00313       0.66011
  25    C  2  px     Ryd( 4p)     0.00001       2.83194
  26    C  2  py     Val( 2p)     1.06418      -0.02159
  27    C  2  py     Ryd( 3p)     0.00277       1.42582
  28    C  2  py     Ryd( 4p)     0.00015       3.51556
  29    C  2  pz     Val( 2p)     1.08067      -0.02436
  30    C  2  pz     Ryd( 3p)     0.00429       1.43192
  31    C  2  pz     Ryd( 4p)     0.00019       3.57021
  32    C  2  dxy    Ryd( 3d)     0.00062       1.76980
  33    C  2  dxz    Ryd( 3d)     0.00059       1.78100
  34    C  2  dyz    Ryd( 3d)     0.00088       2.37259
  35    C  2  dx2y2  Ryd( 3d)     0.00074       2.09773
  36    C  2  dz2    Ryd( 3d)     0.00073       2.29369

  37    C  3  s      Cor( 1s)     1.99999     -10.18271
  38    C  3  s      Val( 2s)     0.94005      -0.08134
  39    C  3  s      Ryd( 3s)     0.00145       1.11273
  40    C  3  s      Ryd( 4s)     0.00001      22.59231
  41    C  3  px     Val( 2p)     1.00093      -0.11147
  42    C  3  px     Ryd( 3p)     0.00208       0.57138
  43    C  3  px     Ryd( 4p)     0.00003       2.69601
  44    C  3  py     Val( 2p)     1.09871      -0.02358
  45    C  3  py     Ryd( 3p)     0.00373       0.97558
  46    C  3  py     Ryd( 4p)     0.00020       3.26077
  47    C  3  pz     Val( 2p)     1.12012      -0.03913
  48    C  3  pz     Ryd( 3p)     0.00547       1.10725
  49    C  3  pz     Ryd( 4p)     0.00010       3.06525
  50    C  3  dxy    Ryd( 3d)     0.00076       1.67013
  51    C  3  dxz    Ryd( 3d)     0.00033       1.57910
  52    C  3  dyz    Ryd( 3d)     0.00124       2.12913
  53    C  3  dx2y2  Ryd( 3d)     0.00088       2.13919
  54    C  3  dz2    Ryd( 3d)     0.00114       2.02737

  55    C  4  s      Cor( 1s)     1.99999     -10.18271
  56    C  4  s      Val( 2s)     0.94005      -0.08134
  57    C  4  s      Ryd( 3s)     0.00145       1.11271
  58    C  4  s      Ryd( 4s)     0.00001      22.59242
  59    C  4  px     Val( 2p)     1.00055      -0.11104
  60    C  4  px     Ryd( 3p)     0.00215       0.57416
  61    C  4  px     Ryd( 4p)     0.00003       2.69920
  62    C  4  py     Val( 2p)     1.09911      -0.02401
  63    C  4  py     Ryd( 3p)     0.00366       0.97283
  64    C  4  py     Ryd( 4p)     0.00020       3.25755
  65    C  4  pz     Val( 2p)     1.12011      -0.03913
  66    C  4  pz     Ryd( 3p)     0.00547       1.10723
  67    C  4  pz     Ryd( 4p)     0.00010       3.06528
  68    C  4  dxy    Ryd( 3d)     0.00076       1.66873
  69    C  4  dxz    Ryd( 3d)     0.00033       1.58482
  70    C  4  dyz    Ryd( 3d)     0.00124       2.12344
  71    C  4  dx2y2  Ryd( 3d)     0.00088       2.14056
  72    C  4  dz2    Ryd( 3d)     0.00114       2.02738

  73    C  5  s      Cor( 1s)     1.99999     -10.19265
  74    C  5  s      Val( 2s)     0.86569      -0.04268
  75    C  5  s      Ryd( 3s)     0.00098       0.96055
  76    C  5  s      Ryd( 4s)     0.00001      22.68254
  77    C  5  px     Val( 2p)     1.01992      -0.09423
  78    C  5  px     Ryd( 3p)     0.00121       0.68821
  79    C  5  px     Ryd( 4p)     0.00005       2.90897
  80    C  5  py     Val( 2p)     1.07459      -0.03578
  81    C  5  py     Ryd( 3p)     0.00485       1.35426
  82    C  5  py     Ryd( 4p)     0.00016       3.50107
  83    C  5  pz     Val( 2p)     1.07370      -0.02787
  84    C  5  pz     Ryd( 3p)     0.00393       1.30731
  85    C  5  pz     Ryd( 4p)     0.00016       3.54892
  86    C  5  dxy    Ryd( 3d)     0.00072       2.02053
  87    C  5  dxz    Ryd( 3d)     0.00057       1.73708
  88    C  5  dyz    Ryd( 3d)     0.00080       2.32490
  89    C  5  dx2y2  Ryd( 3d)     0.00074       1.89876
  90    C  5  dz2    Ryd( 3d)     0.00083       2.29273

  91    C  6  s      Cor( 1s)     1.99999     -10.19713
  92    C  6  s      Val( 2s)     0.86075      -0.04270
  93    C  6  s      Ryd( 3s)     0.00089       0.99548
  94    C  6  s      Ryd( 4s)     0.00001      22.80884
  95    C  6  px     Val( 2p)     1.00793      -0.10707
  96    C  6  px     Ryd( 3p)     0.00304       0.64786
  97    C  6  px     Ryd( 4p)     0.00001       2.82464
  98    C  6  py     Val( 2p)     1.06450      -0.02094
  99    C  6  py     Ryd( 3p)     0.00285       1.43797
 100    C  6  py     Ryd( 4p)     0.00015       3.52285
 101    C  6  pz     Val( 2p)     1.08065      -0.02436
 102    C  6  pz     Ryd( 3p)     0.00429       1.43184
 103    C  6  pz     Ryd( 4p)     0.00019       3.57018
 104    C  6  dxy    Ryd( 3d)     0.00062       1.76345
 105    C  6  dxz    Ryd( 3d)     0.00058       1.76725
 106    C  6  dyz    Ryd( 3d)     0.00089       2.38632
 107    C  6  dx2y2  Ryd( 3d)     0.00074       2.10408
 108    C  6  dz2    Ryd( 3d)     0.00073       2.29361

 109    C  7  s      Cor( 1s)     1.99999     -10.18497
 110    C  7  s      Val( 2s)     0.92752      -0.07402
 111    C  7  s      Ryd( 3s)     0.00142       1.26917
 112    C  7  s      Ryd( 4s)     0.00001      22.28101
 113    C  7  px     Val( 2p)     1.00367      -0.09744
 114    C  7  px     Ryd( 3p)     0.00155       0.60022
 115    C  7  px     Ryd( 4p)     0.00005       2.83788
 116    C  7  py     Val( 2p)     1.05707      -0.03876
 117    C  7  py     Ryd( 3p)     0.00284       0.96684
 118    C  7  py     Ryd( 4p)     0.00015       3.18985
 119    C  7  pz     Val( 2p)     1.14602      -0.04018
 120    C  7  pz     Ryd( 3p)     0.00536       1.22048
 121    C  7  pz     Ryd( 4p)     0.00013       3.15238
 122    C  7  dxy    Ryd( 3d)     0.00071       1.97972
 123    C  7  dxz    Ryd( 3d)     0.00058       1.63620
 124    C  7  dyz    Ryd( 3d)     0.00118       2.16417
 125    C  7  dx2y2  Ryd( 3d)     0.00063       1.77332
 126    C  7  dz2    Ryd( 3d)     0.00121       2.07439

 127    C  8  s      Cor( 1s)     1.99999     -10.18395
 128    C  8  s      Val( 2s)     0.92918      -0.07388
 129    C  8  s      Ryd( 3s)     0.00151       1.28805
 130    C  8  s      Ryd( 4s)     0.00001      22.26615
 131    C  8  px     Val( 2p)     1.01281      -0.08681
 132    C  8  px     Ryd( 3p)     0.00312       0.70219
 133    C  8  px     Ryd( 4p)     0.00006       2.89270
 134    C  8  py     Val( 2p)     1.06237      -0.04854
 135    C  8  py     Ryd( 3p)     0.00205       0.80544
 136    C  8  py     Ryd( 4p)     0.00015       3.11703
 137    C  8  pz     Val( 2p)     1.13554      -0.04103
 138    C  8  pz     Ryd( 3p)     0.00579       1.20912
 139    C  8  pz     Ryd( 4p)     0.00013       3.11747
 140    C  8  dxy    Ryd( 3d)     0.00079       1.96790
 141    C  8  dxz    Ryd( 3d)     0.00068       1.80199
 142    C  8  dyz    Ryd( 3d)     0.00092       1.95338
 143    C  8  dx2y2  Ryd( 3d)     0.00065       1.81395
 144    C  8  dz2    Ryd( 3d)     0.00119       2.05650

 145    C  9  s      Cor( 1s)     1.99999     -10.19284
 146    C  9  s      Val( 2s)     0.86265      -0.03832
 147    C  9  s      Ryd( 3s)     0.00087       0.97271
 148    C  9  s      Ryd( 4s)     0.00001      22.71815
 149    C  9  px     Val( 2p)     1.05418      -0.05517
 150    C  9  px     Ryd( 3p)     0.00152       1.05747
 151    C  9  px     Ryd( 4p)     0.00012       3.26460
 152    C  9  py     Val( 2p)     1.03116      -0.07452
 153    C  9  py     Ryd( 3p)     0.00402       0.99119
 154    C  9  py     Ryd( 4p)     0.00006       3.11059
 155    C  9  pz     Val( 2p)     1.07970      -0.02574
 156    C  9  pz     Ryd( 3p)     0.00394       1.32728
 157    C  9  pz     Ryd( 4p)     0.00017       3.54718
 158    C  9  dxy    Ryd( 3d)     0.00073       2.11604
 159    C  9  dxz    Ryd( 3d)     0.00070       2.03549
 160    C  9  dyz    Ryd( 3d)     0.00071       2.08939
 161    C  9  dx2y2  Ryd( 3d)     0.00070       1.80911
 162    C  9  dz2    Ryd( 3d)     0.00078       2.32013

 163    C 10  s      Cor( 1s)     1.99999     -10.19284
 164    C 10  s      Val( 2s)     0.86266      -0.03833
 165    C 10  s      Ryd( 3s)     0.00087       0.97266
 166    C 10  s      Ryd( 4s)     0.00001      22.71829
 167    C 10  px     Val( 2p)     1.02846      -0.07728
 168    C 10  px     Ryd( 3p)     0.00394       0.96358
 169    C 10  px     Ryd( 4p)     0.00006       3.08489
 170    C 10  py     Val( 2p)     1.05685      -0.05242
 171    C 10  py     Ryd( 3p)     0.00160       1.08504
 172    C 10  py     Ryd( 4p)     0.00012       3.29033
 173    C 10  pz     Val( 2p)     1.07971      -0.02574
 174    C 10  pz     Ryd( 3p)     0.00394       1.32721
 175    C 10  pz     Ryd( 4p)     0.00017       3.54722
 176    C 10  dxy    Ryd( 3d)     0.00073       2.09717
 177    C 10  dxz    Ryd( 3d)     0.00069       2.06443
 178    C 10  dyz    Ryd( 3d)     0.00071       2.06048
 179    C 10  dx2y2  Ryd( 3d)     0.00070       1.82784
 180    C 10  dz2    Ryd( 3d)     0.00078       2.32013

 181    C 11  s      Cor( 1s)     1.99999     -10.18395
 182    C 11  s      Val( 2s)     0.92919      -0.07389
 183    C 11  s      Ryd( 3s)     0.00151       1.28791
 184    C 11  s      Ryd( 4s)     0.00001      22.26637
 185    C 11  px     Val( 2p)     1.05981      -0.05140
 186    C 11  px     Ryd( 3p)     0.00199       0.79163
 187    C 11  px     Ryd( 4p)     0.00015       3.09946
 188    C 11  py     Val( 2p)     1.01536      -0.08396
 189    C 11  py     Ryd( 3p)     0.00318       0.71588
 190    C 11  py     Ryd( 4p)     0.00006       2.91029
 191    C 11  pz     Val( 2p)     1.13554      -0.04103
 192    C 11  pz     Ryd( 3p)     0.00579       1.20910
 193    C 11  pz     Ryd( 4p)     0.00013       3.11750
 194    C 11  dxy    Ryd( 3d)     0.00080       1.99507
 195    C 11  dxz    Ryd( 3d)     0.00090       1.93200
 196    C 11  dyz    Ryd( 3d)     0.00071       1.82344
 197    C 11  dx2y2  Ryd( 3d)     0.00064       1.78665
 198    C 11  dz2    Ryd( 3d)     0.00119       2.05650

 199    C 12  s      Cor( 1s)     1.99999     -10.18496
 200    C 12  s      Val( 2s)     0.92751      -0.07401
 201    C 12  s      Ryd( 3s)     0.00142       1.26933
 202    C 12  s      Ryd( 4s)     0.00001      22.28060
 203    C 12  px     Val( 2p)     1.05485      -0.04117
 204    C 12  px     Ryd( 3p)     0.00285       0.95805
 205    C 12  px     Ryd( 4p)     0.00015       3.17599
 206    C 12  py     Val( 2p)     1.00589      -0.09502
 207    C 12  py     Ryd( 3p)     0.00155       0.60921
 208    C 12  py     Ryd( 4p)     0.00005       2.85181
 209    C 12  pz     Val( 2p)     1.14602      -0.04017
 210    C 12  pz     Ryd( 3p)     0.00536       1.22059
 211    C 12  pz     Ryd( 4p)     0.00013       3.15247
 212    C 12  dxy    Ryd( 3d)     0.00073       2.00280
 213    C 12  dxz    Ryd( 3d)     0.00116       2.15188
 214    C 12  dyz    Ryd( 3d)     0.00060       1.64841
 215    C 12  dx2y2  Ryd( 3d)     0.00061       1.75034
 216    C 12  dz2    Ryd( 3d)     0.00121       2.07451

 217    C 13  s      Cor( 1s)     1.99999     -10.19713
 218    C 13  s      Val( 2s)     0.86073      -0.04268
 219    C 13  s      Ryd( 3s)     0.00089       0.99563
 220    C 13  s      Ryd( 4s)     0.00001      22.80821
 221    C 13  px     Val( 2p)     1.06419      -0.02158
 222    C 13  px     Ryd( 3p)     0.00277       1.42611
 223    C 13  px     Ryd( 4p)     0.00015       3.51564
 224    C 13  py     Val( 2p)     1.00829      -0.10642
 225    C 13  py     Ryd( 3p)     0.00313       0.66008
 226    C 13  py     Ryd( 4p)     0.00001       2.83193
 227    C 13  pz     Val( 2p)     1.08067      -0.02436
 228    C 13  pz     Ryd( 3p)     0.00429       1.43214
 229    C 13  pz     Ryd( 4p)     0.00019       3.57023
 230    C 13  dxy    Ryd( 3d)     0.00062       1.76977
 231    C 13  dxz    Ryd( 3d)     0.00088       2.37266
 232    C 13  dyz    Ryd( 3d)     0.00059       1.78095
 233    C 13  dx2y2  Ryd( 3d)     0.00074       2.09783
 234    C 13  dz2    Ryd( 3d)     0.00073       2.29374

 235    C 14  s      Cor( 1s)     1.99999     -10.19265
 236    C 14  s      Val( 2s)     0.86568      -0.04267
 237    C 14  s      Ryd( 3s)     0.00098       0.96068
 238    C 14  s      Ryd( 4s)     0.00001      22.68199
 239    C 14  px     Val( 2p)     1.07235      -0.03792
 240    C 14  px     Ryd( 3p)     0.00488       1.33712
 241    C 14  px     Ryd( 4p)     0.00015       3.48190
 242    C 14  py     Val( 2p)     1.02215      -0.09210
 243    C 14  py     Ryd( 3p)     0.00118       0.70533
 244    C 14  py     Ryd( 4p)     0.00006       2.92802
 245    C 14  pz     Val( 2p)     1.07372      -0.02786
 246    C 14  pz     Ryd( 3p)     0.00393       1.30754
 247    C 14  pz     Ryd( 4p)     0.00016       3.54899
 248    C 14  dxy    Ryd( 3d)     0.00072       2.04989
 249    C 14  dxz    Ryd( 3d)     0.00079       2.31102
 250    C 14  dyz    Ryd( 3d)     0.00058       1.75105
 251    C 14  dx2y2  Ryd( 3d)     0.00074       1.86930
 252    C 14  dz2    Ryd( 3d)     0.00083       2.29284

 253    C 15  s      Cor( 1s)     1.99999     -10.18271
 254    C 15  s      Val( 2s)     0.94005      -0.08133
 255    C 15  s      Ryd( 3s)     0.00145       1.11290
 256    C 15  s      Ryd( 4s)     0.00001      22.59198
 257    C 15  px     Val( 2p)     1.09909      -0.02401
 258    C 15  px     Ryd( 3p)     0.00366       0.97294
 259    C 15  px     Ryd( 4p)     0.00020       3.25755
 260    C 15  py     Val( 2p)     1.00054      -0.11105
 261    C 15  py     Ryd( 3p)     0.00215       0.57414
 262    C 15  py     Ryd( 4p)     0.00003       2.69918
 263    C 15  pz     Val( 2p)     1.12013      -0.03912
 264    C 15  pz     Ryd( 3p)     0.00547       1.10735
 265    C 15  pz     Ryd( 4p)     0.00010       3.06539
 266    C 15  dxy    Ryd( 3d)     0.00076       1.66867
 267    C 15  dxz    Ryd( 3d)     0.00124       2.12352
 268    C 15  dyz    Ryd( 3d)     0.00033       1.58468
 269    C 15  dx2y2  Ryd( 3d)     0.00088       2.14059
 270    C 15  dz2    Ryd( 3d)     0.00114       2.02752

 271    C 16  s      Cor( 1s)     1.99999     -10.18271
 272    C 16  s      Val( 2s)     0.94004      -0.08133
 273    C 16  s      Ryd( 3s)     0.00145       1.11294
 274    C 16  s      Ryd( 4s)     0.00001      22.59184
 275    C 16  px     Val( 2p)     1.09870      -0.02358
 276    C 16  px     Ryd( 3p)     0.00373       0.97569
 277    C 16  px     Ryd( 4p)     0.00020       3.26076
 278    C 16  py     Val( 2p)     1.00092      -0.11148
 279    C 16  py     Ryd( 3p)     0.00208       0.57136
 280    C 16  py     Ryd( 4p)     0.00003       2.69600
 281    C 16  pz     Val( 2p)     1.12015      -0.03912
 282    C 16  pz     Ryd( 3p)     0.00547       1.10739
 283    C 16  pz     Ryd( 4p)     0.00010       3.06535
 284    C 16  dxy    Ryd( 3d)     0.00076       1.67007
 285    C 16  dxz    Ryd( 3d)     0.00124       2.12920
 286    C 16  dyz    Ryd( 3d)     0.00033       1.57897
 287    C 16  dx2y2  Ryd( 3d)     0.00088       2.13922
 288    C 16  dz2    Ryd( 3d)     0.00114       2.02751

 289    C 17  s      Cor( 1s)     1.99999     -10.19713
 290    C 17  s      Val( 2s)     0.86073      -0.04269
 291    C 17  s      Ryd( 3s)     0.00089       0.99556
 292    C 17  s      Ryd( 4s)     0.00001      22.80840
 293    C 17  px     Val( 2p)     1.06452      -0.02093
 294    C 17  px     Ryd( 3p)     0.00285       1.43828
 295    C 17  px     Ryd( 4p)     0.00015       3.52294
 296    C 17  py     Val( 2p)     1.00794      -0.10707
 297    C 17  py     Ryd( 3p)     0.00304       0.64784
 298    C 17  py     Ryd( 4p)     0.00001       2.82463
 299    C 17  pz     Val( 2p)     1.08066      -0.02436
 300    C 17  pz     Ryd( 3p)     0.00429       1.43206
 301    C 17  pz     Ryd( 4p)     0.00019       3.57021
 302    C 17  dxy    Ryd( 3d)     0.00062       1.76342
 303    C 17  dxz    Ryd( 3d)     0.00089       2.38639
 304    C 17  dyz    Ryd( 3d)     0.00058       1.76720
 305    C 17  dx2y2  Ryd( 3d)     0.00074       2.10418
 306    C 17  dz2    Ryd( 3d)     0.00073       2.29368

 307    C 18  s      Cor( 1s)     1.99999     -10.19265
 308    C 18  s      Val( 2s)     0.86568      -0.04267
 309    C 18  s      Ryd( 3s)     0.00098       0.96063
 310    C 18  s      Ryd( 4s)     0.00001      22.68218
 311    C 18  px     Val( 2p)     1.07459      -0.03578
 312    C 18  px     Ryd( 3p)     0.00485       1.35440
 313    C 18  px     Ryd( 4p)     0.00016       3.50112
 314    C 18  py     Val( 2p)     1.01991      -0.09424
 315    C 18  py     Ryd( 3p)     0.00121       0.68814
 316    C 18  py     Ryd( 4p)     0.00005       2.90886
 317    C 18  pz     Val( 2p)     1.07371      -0.02786
 318    C 18  pz     Ryd( 3p)     0.00393       1.30748
 319    C 18  pz     Ryd( 4p)     0.00016       3.54899
 320    C 18  dxy    Ryd( 3d)     0.00072       2.02032
 321    C 18  dxz    Ryd( 3d)     0.00080       2.32505
 322    C 18  dyz    Ryd( 3d)     0.00057       1.73699
 323    C 18  dx2y2  Ryd( 3d)     0.00074       1.89889
 324    C 18  dz2    Ryd( 3d)     0.00083       2.29282

 325    C 19  s      Cor( 1s)     1.99999     -10.18395
 326    C 19  s      Val( 2s)     0.92918      -0.07388
 327    C 19  s      Ryd( 3s)     0.00151       1.28803
 328    C 19  s      Ryd( 4s)     0.00001      22.26613
 329    C 19  px     Val( 2p)     1.06236      -0.04853
 330    C 19  px     Ryd( 3p)     0.00205       0.80545
 331    C 19  px     Ryd( 4p)     0.00015       3.11711
 332    C 19  py     Val( 2p)     1.01280      -0.08682
 333    C 19  py     Ryd( 3p)     0.00312       0.70213
 334    C 19  py     Ryd( 4p)     0.00006       2.89264
 335    C 19  pz     Val( 2p)     1.13555      -0.04103
 336    C 19  pz     Ryd( 3p)     0.00579       1.20914
 337    C 19  pz     Ryd( 4p)     0.00013       3.11751
 338    C 19  dxy    Ryd( 3d)     0.00079       1.96772
 339    C 19  dxz    Ryd( 3d)     0.00093       1.95345
 340    C 19  dyz    Ryd( 3d)     0.00068       1.80197
 341    C 19  dx2y2  Ryd( 3d)     0.00065       1.81403
 342    C 19  dz2    Ryd( 3d)     0.00119       2.05654

 343    C 20  s      Cor( 1s)     1.99999     -10.18496
 344    C 20  s      Val( 2s)     0.92751      -0.07402
 345    C 20  s      Ryd( 3s)     0.00142       1.26934
 346    C 20  s      Ryd( 4s)     0.00001      22.28062
 347    C 20  px     Val( 2p)     1.05709      -0.03875
 348    C 20  px     Ryd( 3p)     0.00284       0.96699
 349    C 20  px     Ryd( 4p)     0.00015       3.18993
 350    C 20  py     Val( 2p)     1.00367      -0.09745
 351    C 20  py     Ryd( 3p)     0.00155       0.60021
 352    C 20  py     Ryd( 4p)     0.00005       2.83784
 353    C 20  pz     Val( 2p)     1.14602      -0.04018
 354    C 20  pz     Ryd( 3p)     0.00536       1.22056
 355    C 20  pz     Ryd( 4p)     0.00013       3.15241
 356    C 20  dxy    Ryd( 3d)     0.00071       1.97970
 357    C 20  dxz    Ryd( 3d)     0.00118       2.16419
 358    C 20  dyz    Ryd( 3d)     0.00058       1.63615
 359    C 20  dx2y2  Ryd( 3d)     0.00063       1.77343
 360    C 20  dz2    Ryd( 3d)     0.00121       2.07440

 361    C 21  s      Cor( 1s)     1.99999     -10.19284
 362    C 21  s      Val( 2s)     0.86265      -0.03833
 363    C 21  s      Ryd( 3s)     0.00087       0.97265
 364    C 21  s      Ryd( 4s)     0.00001      22.71827
 365    C 21  px     Val( 2p)     1.05687      -0.05240
 366    C 21  px     Ryd( 3p)     0.00160       1.08522
 367    C 21  px     Ryd( 4p)     0.00012       3.29048
 368    C 21  py     Val( 2p)     1.02845      -0.07729
 369    C 21  py     Ryd( 3p)     0.00394       0.96350
 370    C 21  py     Ryd( 4p)     0.00006       3.08481
 371    C 21  pz     Val( 2p)     1.07970      -0.02574
 372    C 21  pz     Ryd( 3p)     0.00394       1.32725
 373    C 21  pz     Ryd( 4p)     0.00017       3.54722
 374    C 21  dxy    Ryd( 3d)     0.00073       2.09713
 375    C 21  dxz    Ryd( 3d)     0.00071       2.06063
 376    C 21  dyz    Ryd( 3d)     0.00069       2.06425
 377    C 21  dx2y2  Ryd( 3d)     0.00070       1.82794
 378    C 21  dz2    Ryd( 3d)     0.00078       2.32013

 379    C 22  s      Cor( 1s)     1.99999     -10.19284
 380    C 22  s      Val( 2s)     0.86265      -0.03832
 381    C 22  s      Ryd( 3s)     0.00087       0.97271
 382    C 22  s      Ryd( 4s)     0.00001      22.71821
 383    C 22  px     Val( 2p)     1.03117      -0.07451
 384    C 22  px     Ryd( 3p)     0.00402       0.99127
 385    C 22  px     Ryd( 4p)     0.00006       3.11067
 386    C 22  py     Val( 2p)     1.05416      -0.05519
 387    C 22  py     Ryd( 3p)     0.00152       1.05731
 388    C 22  py     Ryd( 4p)     0.00012       3.26447
 389    C 22  pz     Val( 2p)     1.07971      -0.02574
 390    C 22  pz     Ryd( 3p)     0.00394       1.32724
 391    C 22  pz     Ryd( 4p)     0.00017       3.54718
 392    C 22  dxy    Ryd( 3d)     0.00073       2.11606
 393    C 22  dxz    Ryd( 3d)     0.00071       2.08957
 394    C 22  dyz    Ryd( 3d)     0.00070       2.03536
 395    C 22  dx2y2  Ryd( 3d)     0.00070       1.80902
 396    C 22  dz2    Ryd( 3d)     0.00078       2.32014

 397    C 23  s      Cor( 1s)     1.99999     -10.18496
 398    C 23  s      Val( 2s)     0.92751      -0.07401
 399    C 23  s      Ryd( 3s)     0.00142       1.26918
 400    C 23  s      Ryd( 4s)     0.00001      22.28092
 401    C 23  px     Val( 2p)     1.00588      -0.09501
 402    C 23  px     Ryd( 3p)     0.00155       0.60922
 403    C 23  px     Ryd( 4p)     0.00005       2.85185
 404    C 23  py     Val( 2p)     1.05483      -0.04118
 405    C 23  py     Ryd( 3p)     0.00285       0.95794
 406    C 23  py     Ryd( 4p)     0.00015       3.17591
 407    C 23  pz     Val( 2p)     1.14603      -0.04018
 408    C 23  pz     Ryd( 3p)     0.00536       1.22050
 409    C 23  pz     Ryd( 4p)     0.00013       3.15244
 410    C 23  dxy    Ryd( 3d)     0.00073       2.00280
 411    C 23  dxz    Ryd( 3d)     0.00060       1.64845
 412    C 23  dyz    Ryd( 3d)     0.00116       2.15187
 413    C 23  dx2y2  Ryd( 3d)     0.00061       1.75024
 414    C 23  dz2    Ryd( 3d)     0.00121       2.07450

 415    C 24  s      Cor( 1s)     1.99999     -10.18395
 416    C 24  s      Val( 2s)     0.92919      -0.07388
 417    C 24  s      Ryd( 3s)     0.00151       1.28794
 418    C 24  s      Ryd( 4s)     0.00001      22.26634
 419    C 24  px     Val( 2p)     1.01538      -0.08394
 420    C 24  px     Ryd( 3p)     0.00318       0.71596
 421    C 24  px     Ryd( 4p)     0.00006       2.91036
 422    C 24  py     Val( 2p)     1.05982      -0.05141
 423    C 24  py     Ryd( 3p)     0.00199       0.79160
 424    C 24  py     Ryd( 4p)     0.00015       3.09936
 425    C 24  pz     Val( 2p)     1.13553      -0.04103
 426    C 24  pz     Ryd( 3p)     0.00579       1.20909
 427    C 24  pz     Ryd( 4p)     0.00013       3.11745
 428    C 24  dxy    Ryd( 3d)     0.00080       1.99527
 429    C 24  dxz    Ryd( 3d)     0.00071       1.82349
 430    C 24  dyz    Ryd( 3d)     0.00090       1.93192
 431    C 24  dx2y2  Ryd( 3d)     0.00064       1.78655
 432    C 24  dz2    Ryd( 3d)     0.00119       2.05647

 433    C 25  s      Cor( 1s)     1.99999     -10.19265
 434    C 25  s      Val( 2s)     0.86569      -0.04268
 435    C 25  s      Ryd( 3s)     0.00098       0.96060
 436    C 25  s      Ryd( 4s)     0.00001      22.68232
 437    C 25  px     Val( 2p)     1.02216      -0.09209
 438    C 25  px     Ryd( 3p)     0.00118       0.70542
 439    C 25  px     Ryd( 4p)     0.00006       2.92815
 440    C 25  py     Val( 2p)     1.07234      -0.03793
 441    C 25  py     Ryd( 3p)     0.00488       1.33697
 442    C 25  py     Ryd( 4p)     0.00015       3.48182
 443    C 25  pz     Val( 2p)     1.07370      -0.02787
 444    C 25  pz     Ryd( 3p)     0.00393       1.30738
 445    C 25  pz     Ryd( 4p)     0.00016       3.54893
 446    C 25  dxy    Ryd( 3d)     0.00072       2.05011
 447    C 25  dxz    Ryd( 3d)     0.00058       1.75115
 448    C 25  dyz    Ryd( 3d)     0.00079       2.31086
 449    C 25  dx2y2  Ryd( 3d)     0.00074       1.86916
 450    C 25  dz2    Ryd( 3d)     0.00083       2.29276

 451    C 26  s      Cor( 1s)     1.99999     -10.19713
 452    C 26  s      Val( 2s)     0.86074      -0.04269
 453    C 26  s      Ryd( 3s)     0.00089       0.99555
 454    C 26  s      Ryd( 4s)     0.00001      22.80863
 455    C 26  px     Val( 2p)     1.00829      -0.10642
 456    C 26  px     Ryd( 3p)     0.00313       0.66011
 457    C 26  px     Ryd( 4p)     0.00001       2.83194
 458    C 26  py     Val( 2p)     1.06418      -0.02159
 459    C 26  py     Ryd( 3p)     0.00277       1.42582
 460    C 26  py     Ryd( 4p)     0.00015       3.51556
 461    C 26  pz     Val( 2p)     1.08067      -0.02436
 462    C 26  pz     Ryd( 3p)     0.00429       1.43192
 463    C 26  pz     Ryd( 4p)     0.00019       3.57021
 464    C 26  dxy    Ryd( 3d)     0.00062       1.76980
 465    C 26  dxz    Ryd( 3d)     0.00059       1.78100
 466    C 26  dyz    Ryd( 3d)     0.00088       2.37259
 467    C 26  dx2y2  Ryd( 3d)     0.00074       2.09773
 468    C 26  dz2    Ryd( 3d)     0.00073       2.29369

[...]
  653. RY (12) C 30             0.00000     4.22695
  654. RY (13) C 30             0.00000    20.09673
  655. RY ( 1) C 31             0.00555     1.12836
  656. RY ( 2) C 31             0.00225     0.94544
  657. RY ( 3) C 31             0.00131     0.81985
  658. RY ( 4) C 31             0.00063     1.45913
  659. RY ( 5) C 31             0.00043     1.38287
  660. RY ( 6) C 31             0.00021     3.40158
  661. RY ( 7) C 31             0.00010     3.09488
  662. RY ( 8) C 31             0.00007     1.74125
  663. RY ( 9) C 31             0.00004     2.02641
  664. RY (10) C 31             0.00002     2.27019
  665. RY (11) C 31             0.00001     2.37796
  666. RY (12) C 31             0.00000     2.75883
  667. RY (13) C 31             0.00000    21.72495
  668. RY ( 1) C 32             0.00621     1.10087
  669. RY ( 2) C 32             0.00252     0.83842
  670. RY ( 3) C 32             0.00123     0.79251
  671. RY ( 4) C 32             0.00061     1.56006
  672. RY ( 5) C 32             0.00041     1.39422
  673. RY ( 6) C 32             0.00021     3.36043
  674. RY ( 7) C 32             0.00009     2.74899
  675. RY ( 8) C 32             0.00006     2.23429
  676. RY ( 9) C 32             0.00004     1.91160
  677. RY (10) C 32             0.00001     2.21015
  678. RY (11) C 32             0.00000     2.35686
  679. RY (12) C 32             0.00000     3.31621
  680. RY (13) C 32             0.00000    21.15272
  681. RY ( 1) C 33             0.00444     1.43482
  682. RY ( 2) C 33             0.00413     1.42631
  683. RY ( 3) C 33             0.00088     0.98886
  684. RY ( 4) C 33             0.00071     1.54101
  685. RY ( 5) C 33             0.00062     1.54041
  686. RY ( 6) C 33             0.00038     1.70111
  687. RY ( 7) C 33             0.00018     3.45617
  688. RY ( 8) C 33             0.00016     3.51379
  689. RY ( 9) C 33             0.00007     2.90708
  690. RY (10) C 33             0.00003     2.52496
  691. RY (11) C 33             0.00003     2.34327
  692. RY (12) C 33             0.00000     5.47826
  693. RY (13) C 33             0.00000    18.49922
  694. RY ( 1) C 34             0.00444     1.43461
  695. RY ( 2) C 34             0.00413     1.42640
  696. RY ( 3) C 34             0.00088     0.98924
  697. RY ( 4) C 34             0.00071     1.54056
  698. RY ( 5) C 34             0.00062     1.54049
  699. RY ( 6) C 34             0.00038     1.70125
  700. RY ( 7) C 34             0.00018     3.45596
  701. RY ( 8) C 34             0.00016     3.51391
  702. RY ( 9) C 34             0.00007     2.90697
  703. RY (10) C 34             0.00003     2.52408
  704. RY (11) C 34             0.00003     2.34401
  705. RY (12) C 34             0.00000     5.48219
  706. RY (13) C 34             0.00000    18.49556
  707. RY ( 1) C 35             0.00621     1.10081
  708. RY ( 2) C 35             0.00252     0.83845
  709. RY ( 3) C 35             0.00123     0.79244
  710. RY ( 4) C 35             0.00061     1.56015
  711. RY ( 5) C 35             0.00041     1.39396
  712. RY ( 6) C 35             0.00021     3.36056
  713. RY ( 7) C 35             0.00009     2.74886
  714. RY ( 8) C 35             0.00006     2.23405
  715. RY ( 9) C 35             0.00004     1.91176
  716. RY (10) C 35             0.00001     2.21045
  717. RY (11) C 35             0.00000     2.35680
  718. RY (12) C 35             0.00000     3.31130
  719. RY (13) C 35             0.00000    21.15768
  720. RY ( 1) C 36             0.00555     1.12848
  721. RY ( 2) C 36             0.00225     0.94549
  722. RY ( 3) C 36             0.00131     0.81983
  723. RY ( 4) C 36             0.00063     1.45940
  724. RY ( 5) C 36             0.00043     1.38284
  725. RY ( 6) C 36             0.00021     3.40175
  726. RY ( 7) C 36             0.00010     3.09478
  727. RY ( 8) C 36             0.00007     1.74155
  728. RY ( 9) C 36             0.00004     2.02636
  729. RY (10) C 36             0.00002     2.27005
  730. RY (11) C 36             0.00001     2.37767
  731. RY (12) C 36             0.00000     2.75880
  732. RY (13) C 36             0.00000    21.72506
  733. RY ( 1) C 37             0.00442     1.30379
  734. RY ( 2) C 37             0.00427     1.61893
  735. RY ( 3) C 37             0.00179     0.93965
  736. RY ( 4) C 37             0.00079     1.23095
  737. RY ( 5) C 37             0.00047     1.75434
  738. RY ( 6) C 37             0.00041     1.66282
  739. RY ( 7) C 37             0.00018     3.36235
  740. RY ( 8) C 37             0.00015     3.40729
  741. RY ( 9) C 37             0.00006     2.72208
  742. RY (10) C 37             0.00004     2.49653
  743. RY (11) C 37             0.00003     2.72922
  744. RY (12) C 37             0.00000     4.22884
  745. RY (13) C 37             0.00000    20.09374
  746. RY ( 1) C 38             0.00496     1.44339
  747. RY ( 2) C 38             0.00405     1.36534
  748. RY ( 3) C 38             0.00104     1.26225
  749. RY ( 4) C 38             0.00074     1.36488
  750. RY ( 5) C 38             0.00057     1.54589
  751. RY ( 6) C 38             0.00042     1.44682
  752. RY ( 7) C 38             0.00018     3.51496
  753. RY ( 8) C 38             0.00016     3.48185
  754. RY ( 9) C 38             0.00007     2.96664
  755. RY (10) C 38             0.00003     2.85003
  756. RY (11) C 38             0.00002     2.28337
  757. RY (12) C 38             0.00000     3.24538
  758. RY (13) C 38             0.00000    20.45061
  759. RY ( 1) C 39             0.00548     1.13754
  760. RY ( 2) C 39             0.00254     0.85703
  761. RY ( 3) C 39             0.00095     1.25207
  762. RY ( 4) C 39             0.00052     1.32654
  763. RY ( 5) C 39             0.00031     1.74075
  764. RY ( 6) C 39             0.00012     2.94764
  765. RY ( 7) C 39             0.00007     2.39262
  766. RY ( 8) C 39             0.00003     2.61757
  767. RY ( 9) C 39             0.00002     1.71203
  768. RY (10) C 39             0.00001     2.16194
  769. RY (11) C 39             0.00000     3.00975
  770. RY (12) C 39             0.00000    20.92201
  771. RY (13) C 39             0.00000     2.83480
  772. RY ( 1) C 40             0.00548     1.13756
  773. RY ( 2) C 40             0.00254     0.85706
  774. RY ( 3) C 40             0.00095     1.25192
  775. RY ( 4) C 40             0.00052     1.32655
  776. RY ( 5) C 40             0.00031     1.74091
  777. RY ( 6) C 40             0.00012     2.94769
  778. RY ( 7) C 40             0.00007     2.39267
  779. RY ( 8) C 40             0.00003     2.61746
  780. RY ( 9) C 40             0.00002     1.71197
  781. RY (10) C 40             0.00001     2.16224
  782. RY (11) C 40             0.00000     3.00968
  783. RY (12) C 40             0.00000    20.92228
  784. RY (13) C 40             0.00000     2.83421
  785. RY ( 1) C 41             0.00442     1.30356
  786. RY ( 2) C 41             0.00427     1.61894
  787. RY ( 3) C 41             0.00179     0.93974
  788. RY ( 4) C 41             0.00079     1.23085
  789. RY ( 5) C 41             0.00047     1.75440
  790. RY ( 6) C 41             0.00041     1.66282
  791. RY ( 7) C 41             0.00018     3.36243
  792. RY ( 8) C 41             0.00015     3.40702
  793. RY ( 9) C 41             0.00006     2.72186
  794. RY (10) C 41             0.00004     2.49594
  795. RY (11) C 41             0.00003     2.72976
  796. RY (12) C 41             0.00000     4.22841
  797. RY (13) C 41             0.00000    20.09467
  798. RY ( 1) C 42             0.00496     1.44348
  799. RY ( 2) C 42             0.00405     1.36525
  800. RY ( 3) C 42             0.00104     1.26214
  801. RY ( 4) C 42             0.00074     1.36493
  802. RY ( 5) C 42             0.00057     1.54589
  803. RY ( 6) C 42             0.00042     1.44675
  804. RY ( 7) C 42             0.00018     3.51522
  805. RY ( 8) C 42             0.00016     3.48180
  806. RY ( 9) C 42             0.00007     2.96643
  807. RY (10) C 42             0.00003     2.84983
  808. RY (11) C 42             0.00002     2.28341
  809. RY (12) C 42             0.00000     3.24562
  810. RY (13) C 42             0.00000    20.45085
  811. RY ( 1) C 43             0.00621     1.10085
  812. RY ( 2) C 43             0.00252     0.83845
  813. RY ( 3) C 43             0.00123     0.79249
  814. RY ( 4) C 43             0.00061     1.56018
  815. RY ( 5) C 43             0.00041     1.39396
  816. RY ( 6) C 43             0.00021     3.36054
  817. RY ( 7) C 43             0.00009     2.74910
  818. RY ( 8) C 43             0.00006     2.23390
  819. RY ( 9) C 43             0.00004     1.91177
  820. RY (10) C 43             0.00001     2.21033
  821. RY (11) C 43             0.00000     2.35702
  822. RY (12) C 43             0.00000     3.31246
  823. RY (13) C 43             0.00000    21.15626
  824. RY ( 1) C 44             0.00555     1.12845
  825. RY ( 2) C 44             0.00225     0.94549
  826. RY ( 3) C 44             0.00131     0.81976
  827. RY ( 4) C 44             0.00063     1.45934
  828. RY ( 5) C 44             0.00043     1.38288
  829. RY ( 6) C 44             0.00021     3.40167
  830. RY ( 7) C 44             0.00010     3.09486
  831. RY ( 8) C 44             0.00007     1.74144
  832. RY ( 9) C 44             0.00004     2.02632
  833. RY (10) C 44             0.00002     2.27005
  834. RY (11) C 44             0.00001     2.37783
  835. RY (12) C 44             0.00000     2.75877
  836. RY (13) C 44             0.00000    21.72500
  837. RY ( 1) C 45             0.00444     1.43472
  838. RY ( 2) C 45             0.00413     1.42640
  839. RY ( 3) C 45             0.00088     0.98900
  840. RY ( 4) C 45             0.00071     1.54136
  841. RY ( 5) C 45             0.00062     1.53998
  842. RY ( 6) C 45             0.00038     1.70105
  843. RY ( 7) C 45             0.00018     3.45609
  844. RY ( 8) C 45             0.00016     3.51386
  845. RY ( 9) C 45             0.00007     2.90710
  846. RY (10) C 45             0.00003     2.52486
  847. RY (11) C 45             0.00003     2.34331
  848. RY (12) C 45             0.00000     5.48339
  849. RY (13) C 45             0.00000    18.49430
  850. RY ( 1) C 46             0.00444     1.43481
  851. RY ( 2) C 46             0.00413     1.42623
  852. RY ( 3) C 46             0.00088     0.98911
  853. RY ( 4) C 46             0.00071     1.54019
  854. RY ( 5) C 46             0.00062     1.54091
  855. RY ( 6) C 46             0.00038     1.70132
  856. RY ( 7) C 46             0.00018     3.45604
  857. RY ( 8) C 46             0.00016     3.51381
  858. RY ( 9) C 46             0.00007     2.90692
  859. RY (10) C 46             0.00003     2.52402
  860. RY (11) C 46             0.00003     2.34411
  861. RY (12) C 46             0.00000     5.47877
  862. RY (13) C 46             0.00000    18.49890
  863. RY ( 1) C 47             0.00555     1.12838
  864. RY ( 2) C 47             0.00225     0.94545
  865. RY ( 3) C 47             0.00131     0.81989
  866. RY ( 4) C 47             0.00063     1.45922
  867. RY ( 5) C 47             0.00043     1.38281
  868. RY ( 6) C 47             0.00021     3.40168
  869. RY ( 7) C 47             0.00010     3.09484
  870. RY ( 8) C 47             0.00007     1.74136
  871. RY ( 9) C 47             0.00004     2.02648
  872. RY (10) C 47             0.00002     2.27007
  873. RY (11) C 47             0.00001     2.37778
  874. RY (12) C 47             0.00000     2.75887
  875. RY (13) C 47             0.00000    21.72506
  876. RY ( 1) C 48             0.00621     1.10083
  877. RY ( 2) C 48             0.00252     0.83842
  878. RY ( 3) C 48             0.00123     0.79244
  879. RY ( 4) C 48             0.00061     1.56000
  880. RY ( 5) C 48             0.00041     1.39423
  881. RY ( 6) C 48             0.00021     3.36046
  882. RY ( 7) C 48             0.00009     2.74868
  883. RY ( 8) C 48             0.00006     2.23449
  884. RY ( 9) C 48             0.00004     1.91161
  885. RY (10) C 48             0.00001     2.21031
  886. RY (11) C 48             0.00000     2.35666
  887. RY (12) C 48             0.00000    21.15412
  888. RY (13) C 48             0.00000     3.31498
  889. RY ( 1) H 49             0.00174     0.38809
  890. RY ( 2) H 49             0.00014     2.27506
  891. RY ( 1) H 50             0.00174     0.38810
  892. RY ( 2) H 50             0.00014     2.27507
  893. RY ( 1) H 51             0.00207     0.48403
  894. RY ( 2) H 51             0.00016     2.28621
  895. RY ( 1) H 52             0.00221     0.41934
  896. RY ( 2) H 52             0.00015     2.28144
  897. RY ( 1) H 53             0.00221     0.41936
  898. RY ( 2) H 53             0.00015     2.28143
  899. RY ( 1) H 54             0.00207     0.48408
  900. RY ( 2) H 54             0.00016     2.28619
  901. RY ( 1) H 55             0.00174     0.38816
  902. RY ( 2) H 55             0.00014     2.27507
  903. RY ( 1) H 56             0.00174     0.38815
  904. RY ( 2) H 56             0.00014     2.27506
  905. RY ( 1) H 57             0.00221     0.41936
  906. RY ( 2) H 57             0.00015     2.28144
  907. RY ( 1) H 58             0.00207     0.48405
  908. RY ( 2) H 58             0.00016     2.28620
  909. RY ( 1) H 59             0.00207     0.48406
  910. RY ( 2) H 59             0.00016     2.28619
  911. RY ( 1) H 60             0.00221     0.41934
  912. RY ( 2) H 60             0.00015     2.28144
  913. RY ( 1) H 61             0.00174     0.38809
  914. RY ( 2) H 61             0.00014     2.27506
  915. RY ( 1) H 62             0.00174     0.38810
  916. RY ( 2) H 62             0.00014     2.27507
  917. RY ( 1) H 63             0.00207     0.48403
  918. RY ( 2) H 63             0.00016     2.28621
  919. RY ( 1) H 64             0.00221     0.41934
  920. RY ( 2) H 64             0.00015     2.28144
  921. RY ( 1) H 65             0.00221     0.41936
  922. RY ( 2) H 65             0.00015     2.28143
  923. RY ( 1) H 66             0.00207     0.48407
  924. RY ( 2) H 66             0.00016     2.28619
  925. RY ( 1) H 67             0.00174     0.38816
  926. RY ( 2) H 67             0.00014     2.27506
  927. RY ( 1) H 68             0.00174     0.38815
  928. RY ( 2) H 68             0.00014     2.27506
  929. RY ( 1) H 69             0.00221     0.41936
  930. RY ( 2) H 69             0.00015     2.28144
  931. RY ( 1) H 70             0.00207     0.48405
  932. RY ( 2) H 70             0.00016     2.28620
  933. RY ( 1) H 71             0.00207     0.48407
  934. RY ( 2) H 71             0.00016     2.28619
  935. RY ( 1) H 72             0.00221     0.41934
  936. RY ( 2) H 72             0.00015     2.28144
          -------------------------------
                 Total Lewis  300.11948  ( 96.1921%)
           Valence non-Lewis   11.28065  (  3.6156%)
           Rydberg non-Lewis    0.59986  (  0.1923%)
          -------------------------------
               Total unit  1  312.00000  (100.0000%)
              Charge unit  1    0.00000

 $CHOOSE
   LONE 9 1 22 1 33 1 46 1 END
   BOND S 1 2 S 1 4 D 1 48 S 2 6 D 2 47 D 3 4 S 3 5 S 3 49 S 4 50 S 5 6 D 5 8
        D 6 7 S 7 10 S 7 51 S 8 9 S 8 52 S 9 10 S 9 12 S 10 11 D 11 14 S 11 53
        D 12 13 S 12 54 S 13 14 S 13 17 S 14 15 D 15 16 S 15 55 S 16 18 S 16 56
        S 17 18 D 17 20 D 18 19 S 19 22 S 19 57 S 20 21 S 20 58 S 21 22 S 21 24
        S 22 23 D 23 26 S 23 59 D 24 25 S 24 60 S 25 26 S 25 28 S 26 30 D 27 28
        S 27 29 S 27 61 S 28 62 S 29 30 D 29 32 D 30 31 S 31 34 S 31 63 S 32 33
        S 32 64 S 33 34 S 33 36 S 34 35 D 35 38 S 35 65 D 36 37 S 36 66 S 37 38
        S 37 41 S 38 39 D 39 40 S 39 67 S 40 42 S 40 68 S 41 42 D 41 44 D 42 43
        S 43 46 S 43 69 S 44 45 S 44 70 S 45 46 S 45 48 S 46 47 S 47 71 S 48 72
        END
 $END

 NBO analysis completed in 47.38 CPU seconds (48 wall seconds)
 Maximum scratch memory used by NBO was 7886952 words (60.17 MB)
 Maximum scratch memory used by G16NBO was 1330364 words (10.15 MB)

 Opening RunExU unformatted file "/tmp/6_6_arm3nCNB_sgp-24879.tmp/Gau-171515.EUF"
 Read unf file /tmp/6_6_arm3nCNB_sgp-24879.tmp/Gau-171515.EUF:
 Label Gaussian matrix elements                                         IVers= 1 NLab= 2 Version=ES64L-G16RevB.01
 Title From ../../6_6_arm3nCNB_opt.out                                 
 NAtoms=    72 NBasis=   936 NBsUse=   936 ICharg=     0 Multip=     1 NE=   312 Len12L=8 Len4L=8 IOpCl= 0 ICGU= -1
 GAUSSIAN SCALARS                    NI= 1 NR= 1 NTot=       1 LenBuf=    2 NRI=1 N=    1000
 NPA CHARGES                         NI= 0 NR= 1 NTot=      72 LenBuf= 2048 NRI=1 N=      72
 Recovered energy= -1843.87506415     dipole=     -0.000000837934     -0.000000707320     -0.000098415073
 1\1\GINC-CU12\SP\RB3LYP\6-311G(d)\C48H24\WANG\21-May-2025\0\\# B3LYP/6
 -311G* Pop=(NBO6,Hirshfeld) NOSYMM\\From ../../6_6_arm3nCNB_opt.out\\0
 ,1\C,0,3.861007,-1.472724,-1.811316\C,0,4.091056,-0.809763,-0.547245\C
 ,0,4.149569,0.604545,-3.041339\C,0,4.126532,-0.746881,-3.041276\C,0,3.
 909078,1.33919,-1.811456\C,0,4.116452,0.668879,-0.547301\C,0,3.959474,
 1.420868,0.612883\C,0,3.278303,2.574841,-1.840241\C,0,2.74591,3.139325
 ,-0.653802\C,0,3.232012,2.63661,0.600268\C,0,2.686274,3.188162,1.78666
 2\C,0,1.555747,3.907793,-0.666346\C,0,0.809753,4.090659,0.493965\C,0,1
 .472752,3.860695,1.757997\C,0,0.746914,4.125868,2.987974\C,0,-0.604542
 ,4.148906,2.988047\C,0,-0.668847,4.116029,0.494033\C,0,-1.339172,3.908
 751,1.758159\C,0,-2.574979,3.278139,1.78691\C,0,-1.420847,3.959033,-0.
 666191\C,0,-2.636646,3.231772,-0.653571\C,0,-3.139501,2.745838,0.60051
 4\C,0,-3.908158,1.555732,0.613066\C,0,-3.188313,2.68607,-1.839984\C,0,
 -3.861033,1.472717,-1.811275\C,0,-4.091068,0.809757,-0.5472\C,0,-4.149
 608,-0.604554,-3.041292\C,0,-4.126571,0.746873,-3.041231\C,0,-3.909104
 ,-1.339196,-1.81141\C,0,-4.116464,-0.668884,-0.547254\C,0,-3.959473,-1
 .420871,0.612929\C,0,-3.278329,-2.574848,-1.840201\C,0,-2.745923,-3.13
 933,-0.653767\C,0,-3.232011,-2.636614,0.600308\C,0,-2.68626,-3.188164,
 1.786696\C,0,-1.55576,-3.907798,-0.666324\C,0,-0.809753,-4.090663,0.49
 3979\C,0,-1.472738,-3.860697,1.758019\C,0,-0.746886,-4.125868,2.987988
 \C,0,0.60457,-4.148907,2.988046\C,0,0.668846,-4.116033,0.494031\C,0,1.
 339186,-3.908753,1.758149\C,0,2.574994,-3.278141,1.786886\C,0,1.420833
 ,-3.959039,-0.666201\C,0,2.636633,-3.231777,-0.653596\C,0,3.139502,-2.
 745841,0.600483\C,0,3.908159,-1.555736,0.613024\C,0,3.188287,-2.686077
 ,-1.840016\H,0,4.231206,1.162408,-3.971047\H,0,4.189113,-1.307303,-3.9
 70922\H,0,4.16428,0.978709,1.583485\H,0,3.012066,3.009411,-2.80169\H,0
 ,3.111571,2.907354,2.748112\H,0,1.120706,4.127467,-1.636909\H,0,1.3072
 89,4.18806,3.917675\H,0,-1.162359,4.230149,3.917817\H,0,-3.009524,3.01
 1913,2.748375\H,0,-0.978639,4.163776,-1.636785\H,0,-4.127809,1.120707,
 1.58364\H,0,-2.907477,3.111361,-2.80143\H,0,-4.231256,-1.162417,-3.970
 998\H,0,-4.189163,1.307293,-3.970877\H,0,-4.164269,-0.978711,1.583533\
 H,0,-3.012103,-3.009419,-2.801653\H,0,-3.111546,-2.907355,2.74815\H,0,
 -1.120729,-4.127474,-1.636891\H,0,-1.307251,-4.188059,3.917695\H,0,1.1
 62397,-4.230148,3.91781\H,0,3.009549,-3.011914,2.748346\H,0,0.978616,-
 4.163782,-1.636791\H,0,4.127821,-1.120709,1.583595\H,0,2.907441,-3.111
 369,-2.801458\\Version=ES64L-G16RevB.01\HF=-1843.8750642\RMSD=6.018e-0
 9\Dipole=-0.0000008,-0.0000007,-0.0000984\Quadrupole=-13.7979981,-13.8
 042142,27.6022123,0.0003031,0.0002344,0.0000304\PG=C01 [X(C48H24)]\\@


 REVOLUTIONS HAVE NEVER LIGHTENED THE BURDEN OF TYRANNY:
 THEY HAVE MERELY SHIFTED IT TO OTHER SHOULDERS.
                                   -- G. B. SHAW (1903)
 Job cpu time:       0 days  1 hours  8 minutes 56.8 seconds.
 Elapsed time:       0 days  0 hours  2 minutes 30.8 seconds.
 File lengths (MBytes):  RWF=    476 Int=      0 D2E=      0 Chk=     52 Scr=      1
 Normal termination of Gaussian 16 at Wed May 21 22:39:34 2025.
