 Entering Gaussian System, Link 0=g16
 Initial command:
 /opt/software/g16/l1.exe "/tmp/6_6_armCNB_sgp-915.tmp/Gau-73326.inp" -scrdir="/tmp/6_6_armCNB_sgp-915.tmp/"
 Entering Link 1 = /opt/software/g16/l1.exe PID=     73327.
  
 Copyright (c) 1988-2017, Gaussian, Inc.  All Rights Reserved.
  
 This is part of the Gaussian(R) 16 program.  It is based on
 the Gaussian(R) 09 system (copyright 2009, Gaussian, Inc.),
 the Gaussian(R) 03 system (copyright 2003, Gaussian, Inc.),
 the Gaussian(R) 98 system (copyright 1998, Gaussian, Inc.),
 the Gaussian(R) 94 system (copyright 1995, Gaussian, Inc.),
 the Gaussian 92(TM) system (copyright 1992, Gaussian, Inc.),
 the Gaussian 90(TM) system (copyright 1990, Gaussian, Inc.),
 the Gaussian 88(TM) system (copyright 1988, Gaussian, Inc.),
 the Gaussian 86(TM) system (copyright 1986, Carnegie Mellon
 University), and the Gaussian 82(TM) system (copyright 1983,
 Carnegie Mellon University). Gaussian is a federally registered
 trademark of Gaussian, Inc.
  
 This software contains proprietary and confidential information,
 including trade secrets, belonging to Gaussian, Inc.
  
 This software is provided under written license and may be
 used, copied, transmitted, or stored only in accord with that
 written license.
  
 The following legend is applicable only to US Government
 contracts under FAR:
  
                    RESTRICTED RIGHTS LEGEND
  
 Use, reproduction and disclosure by the US Government is
 subject to restrictions as set forth in subparagraphs (a)
 and (c) of the Commercial Computer Software - Restricted
 Rights clause in FAR 52.227-19.
  
 Gaussian, Inc.
 340 Quinnipiac St., Bldg. 40, Wallingford CT 06492
  
  
 ---------------------------------------------------------------
 Warning -- This program may not be used in any manner that
 competes with the business of Gaussian, Inc. or will provide
 assistance to any competitor of Gaussian, Inc.  The licensee
 of this program is prohibited from giving any competitor of
 Gaussian, Inc. access to this program.  By using this program,
 the user acknowledges that Gaussian, Inc. is engaged in the
 business of creating and licensing software in the field of
 computational chemistry and represents and warrants to the
 licensee that it is not a competitor of Gaussian, Inc. and that
 it will not use this program in any manner prohibited above.
 ---------------------------------------------------------------
  

 Cite this work as:
 Gaussian 16, Revision B.01,
 M. J. Frisch, G. W. Trucks, H. B. Schlegel, G. E. Scuseria, 
 M. A. Robb, J. R. Cheeseman, G. Scalmani, V. Barone, 
 G. A. Petersson, H. Nakatsuji, X. Li, M. Caricato, A. V. Marenich, 
 J. Bloino, B. G. Janesko, R. Gomperts, B. Mennucci, H. P. Hratchian, 
 J. V. Ortiz, A. F. Izmaylov, J. L. Sonnenberg, D. Williams-Young, 
 F. Ding, F. Lipparini, F. Egidi, J. Goings, B. Peng, A. Petrone, 
 T. Henderson, D. Ranasinghe, V. G. Zakrzewski, J. Gao, N. Rega, 
 G. Zheng, W. Liang, M. Hada, M. Ehara, K. Toyota, R. Fukuda, 
 J. Hasegawa, M. Ishida, T. Nakajima, Y. Honda, O. Kitao, H. Nakai, 
 T. Vreven, K. Throssell, J. A. Montgomery, Jr., J. E. Peralta, 
 F. Ogliaro, M. J. Bearpark, J. J. Heyd, E. N. Brothers, K. N. Kudin, 
 V. N. Staroverov, T. A. Keith, R. Kobayashi, J. Normand, 
 K. Raghavachari, A. P. Rendell, J. C. Burant, S. S. Iyengar, 
 J. Tomasi, M. Cossi, J. M. Millam, M. Klene, C. Adamo, R. Cammi, 
 J. W. Ochterski, R. L. Martin, K. Morokuma, O. Farkas, 
 J. B. Foresman, and D. J. Fox, Gaussian, Inc., Wallingford CT, 2016.
 
 ******************************************
 Gaussian 16:  ES64L-G16RevB.01 20-Dec-2017
                17-May-2025 
 ******************************************
 %nproc=18
 Will use up to   18 processors via shared memory.
 -------------------------------------------
 # B3LYP/6-311G* Pop=(NBO6,Hirshfeld) NOSYMM
 -------------------------------------------
 1/38=1,172=1/1;
 2/12=2,15=1,17=6,18=5,40=1/2;
 3/5=4,6=6,7=1,11=2,25=1,30=1,74=-5/1,2,3;
 4//1;
 5/5=2,38=5/2;
 6/7=2,8=2,9=2,10=2,28=1,40=1,79=1,113=1,114=1,124=3103/1,12;
 99/5=1,9=1/99;
 ------------------------------
 From ../..//6_6_armCNB_opt.out
 ------------------------------
 Symbolic Z-matrix:
 Charge =  0 Multiplicity = 1
 6                    -0.86919   3.08871   3.25561 
 6                     1.88491   3.49157   2.2695 
 6                     0.74397   3.8487    1.48022 
 6                    -0.1697    4.51783  -0.67455 
 6                    -1.44436   4.33138  -0.21816 
 6                    -0.60773   3.65097   1.96419 
 6                     0.95373   4.07893   0.09846 
 6                    -1.6822    3.69336   1.04225 
 6                     4.53685  -0.55523   0.05728 
 6                     4.48613   0.75283   0.45 
 6                     3.25472  -3.20427  -0.18452 
 6                     2.17619  -4.01977   0.01437 
 6                    -0.57791  -4.42263   1.00047 
 6                    -1.70716  -3.93007   1.59207 
 6                    -3.17912  -1.68389   2.81997 
 6                    -3.22985  -0.37584   3.21269 
 6                    -1.94772   2.27321   3.45449 
 6                     3.01416   2.99901   1.6779 
 6                     2.27022   3.45358  -1.9528 
 6                     3.56004   1.4068   -1.70412 
 6                     3.80164   1.7277   -0.34584 
 6                     2.15123   3.55661  -0.52891 
 6                     2.95148   2.414    -2.5211 
 6                     3.0792    2.83012   0.25681 
 6                    -2.83806   1.96456   2.37548 
 6                    -3.77468   2.56936   0.21157 
 6                    -4.36808   1.34332   0.09966 
 6                    -3.46733   0.66442   2.2568 
 6                    -2.82591   2.82857   1.25315 
 6                    -4.05304   0.29319   1.02173 
 6                    -3.36243  -2.04057   1.44468 
 6                    -4.25848  -1.48294  -0.74887 
 6                    -3.57722  -2.52252  -1.31717 
 6                    -2.64     -3.14299   0.84203 
 6                    -3.99925  -1.09393   0.60528 
 6                    -2.59044  -3.24373  -0.56994 
 6                    -0.30477  -4.16157  -0.38137 
 6                    -1.1373   -3.58676  -2.59543 
 6                     0.13736  -3.40031  -3.05182 
 6                     1.04693  -3.96385  -0.86535 
 6                    -1.39293  -3.76606  -1.1973 
 6                     1.243    -3.38049  -2.14109 
 6                     2.46768  -1.6383   -3.48154 
 6                     3.61383   0.01968  -2.12058 
 6                     3.90654  -0.9773   -1.15796 
 6                     2.38671  -2.5157   -2.352 
 6                     3.06108  -0.41226  -3.36963 
 6                     3.27727  -2.27744  -1.27664 
 1                    -0.14751   3.21059   4.05666 
 1                     1.81902   3.49824   3.35254 
 1                    -0.02165   4.89482  -1.68118 
 1                    -2.27686   4.56494  -0.87371 
 1                     4.95775  -1.29138   0.73424 
 1                     4.86801   1.02292   1.42907 
 1                     4.04226  -3.1829    0.56159 
 1                     2.13406  -4.62574   0.91347 
 1                     0.16753  -4.9134    1.61759 
 1                    -1.83042  -4.04193   2.66429 
 1                    -2.88146  -2.43807   3.54106 
 1                    -2.9712   -0.12377   4.23589 
 1                    -2.05571   1.76775   4.40854 
 1                     3.81697   2.62678   2.30584 
 1                     2.92588   2.29561  -3.59938 
 1                     1.72055   4.13491  -2.59391 
 1                    -3.9408    3.30679  -0.56687 
 1                    -4.99069   1.1376   -0.76487 
 1                    -4.91243  -0.88046  -1.37075 
 1                    -3.7071   -2.71976  -2.37622 
 1                    -1.9649   -3.47967  -3.28895 
 1                     0.29031  -3.14979  -4.09642 
 1                     3.00414   0.27755  -4.20526 
 1                     1.95425  -1.89164  -4.40326 
 
 Symmetry turned off by external request.
 This structure is nearly, but not quite of a higher symmetry.
 Consider Symm=Loose if the higher symmetry is desired.
 Stoichiometry    C48H24
 Framework group  C1[X(C48H24)]
 Deg. of freedom   210
 Full point group                 C1      NOp   1
                          Input orientation:                          
 ---------------------------------------------------------------------
 Center     Atomic      Atomic             Coordinates (Angstroms)
 Number     Number       Type             X           Y           Z
 ---------------------------------------------------------------------
      1          6           0       -0.869190    3.088708    3.255606
      2          6           0        1.884911    3.491567    2.269504
      3          6           0        0.743973    3.848695    1.480218
      4          6           0       -0.169699    4.517827   -0.674547
      5          6           0       -1.444358    4.331375   -0.218157
      6          6           0       -0.607729    3.650974    1.964193
      7          6           0        0.953728    4.078934    0.098457
      8          6           0       -1.682202    3.693361    1.042248
      9          6           0        4.536851   -0.555228    0.057281
     10          6           0        4.486126    0.752828    0.450000
     11          6           0        3.254716   -3.204271   -0.184517
     12          6           0        2.176191   -4.019771    0.014368
     13          6           0       -0.577909   -4.422630    1.000470
     14          6           0       -1.707159   -3.930074    1.592074
     15          6           0       -3.179124   -1.683891    2.819974
     16          6           0       -3.229849   -0.375835    3.212693
     17          6           0       -1.947715    2.273208    3.454491
     18          6           0        3.014160    2.999011    1.677899
     19          6           0        2.270221    3.453584   -1.952801
     20          6           0        3.560040    1.406802   -1.704120
     21          6           0        3.801639    1.727697   -0.345838
     22          6           0        2.151232    3.556608   -0.528905
     23          6           0        2.951480    2.414000   -2.521101
     24          6           0        3.079204    2.830115    0.256810
     25          6           0       -2.838063    1.964561    2.375479
     26          6           0       -3.774680    2.569359    0.211567
     27          6           0       -4.368080    1.343323    0.099657
     28          6           0       -3.467330    0.664421    2.256805
     29          6           0       -2.825914    2.828570    1.253154
     30          6           0       -4.053036    0.293191    1.021731
     31          6           0       -3.362433   -2.040572    1.444682
     32          6           0       -4.258481   -1.482936   -0.748873
     33          6           0       -3.577223   -2.522520   -1.317173
     34          6           0       -2.639998   -3.142990    0.842034
     35          6           0       -3.999246   -1.093926    0.605276
     36          6           0       -2.590437   -3.243733   -0.569939
     37          6           0       -0.304767   -4.161570   -0.381374
     38          6           0       -1.137302   -3.586764   -2.595427
     39          6           0        0.137357   -3.400312   -3.051817
     40          6           0        1.046934   -3.963849   -0.865349
     41          6           0       -1.392934   -3.766059   -1.197301
     42          6           0        1.242996   -3.380486   -2.141092
     43          6           0        2.467678   -1.638296   -3.481541
     44          6           0        3.613831    0.019684   -2.120575
     45          6           0        3.906535   -0.977296   -1.157961
     46          6           0        2.386709   -2.515695   -2.351998
     47          6           0        3.061079   -0.412260   -3.369631
     48          6           0        3.277268   -2.277436   -1.276635
     49          1           0       -0.147511    3.210587    4.056658
     50          1           0        1.819024    3.498244    3.352543
     51          1           0       -0.021650    4.894820   -1.681184
     52          1           0       -2.276861    4.564936   -0.873708
     53          1           0        4.957754   -1.291381    0.734244
     54          1           0        4.868008    1.022919    1.429069
     55          1           0        4.042260   -3.182900    0.561591
     56          1           0        2.134062   -4.625738    0.913473
     57          1           0        0.167527   -4.913395    1.617588
     58          1           0       -1.830417   -4.041932    2.664294
     59          1           0       -2.881458   -2.438070    3.541062
     60          1           0       -2.971203   -0.123770    4.235887
     61          1           0       -2.055709    1.767750    4.408540
     62          1           0        3.816967    2.626782    2.305837
     63          1           0        2.925877    2.295607   -3.599380
     64          1           0        1.720549    4.134908   -2.593907
     65          1           0       -3.940802    3.306788   -0.566869
     66          1           0       -4.990686    1.137603   -0.764867
     67          1           0       -4.912428   -0.880456   -1.370751
     68          1           0       -3.707100   -2.719757   -2.376224
     69          1           0       -1.964901   -3.479669   -3.288947
     70          1           0        0.290311   -3.149785   -4.096423
     71          1           0        3.004135    0.277547   -4.205264
     72          1           0        1.954251   -1.891637   -4.403262
 ---------------------------------------------------------------------
 Rotational constants (GHZ):           0.0779277           0.0779277           0.0482534
 Standard basis: 6-311G(d) (5D, 7F)
   936 basis functions,  1656 primitive gaussians,   984 cartesian basis functions
   156 alpha electrons      156 beta electrons
       nuclear repulsion energy      5460.4790283330 Hartrees.
 NAtoms=   72 NActive=   72 NUniq=   72 SFac= 1.00D+00 NAtFMM=   60 NAOKFM=T Big=T
 Integral buffers will be    131072 words long.
 Raffenetti 2 integral format.
 Two-electron integral symmetry is turned off.
 One-electron integrals computed using PRISM.
 NBasis=   936 RedAO= T EigKep=  4.99D-05  NBF=   936
 NBsUse=   936 1.00D-06 EigRej= -1.00D+00 NBFU=   936
 ExpMin= 1.03D-01 ExpMax= 4.56D+03 ExpMxC= 6.82D+02 IAcc=3 IRadAn=         5 AccDes= 0.00D+00
 Harris functional with IExCor=  402 and IRadAn=       5 diagonalized for initial guess.
 HarFok:  IExCor=  402 AccDes= 0.00D+00 IRadAn=         5 IDoV= 1 UseB2=F ITyADJ=14
 ICtDFT=  3500011 ScaDFX=  1.000000  1.000000  1.000000  1.000000
 FoFCou: FMM=F IPFlag=           0 FMFlag=      100000 FMFlg1=        2001
         NFxFlg=           0 DoJE=T BraDBF=F KetDBF=T FulRan=T
         wScrn=  0.000000 ICntrl=       500 IOpCl=  0 I1Cent=   200000004 NGrid=           0
         NMat0=    1 NMatS0=      1 NMatT0=    0 NMatD0=    1 NMtDS0=    0 NMtDT0=    0
 Symmetry not used in FoFCou.
 Requested convergence on RMS density matrix=1.00D-08 within 128 cycles.
 Requested convergence on MAX density matrix=1.00D-06.
 Requested convergence on             energy=1.00D-06.
 No special actions if energy rises.
 Integral accuracy reduced to 1.0D-05 until final iterations.
 Initial convergence to 1.0D-05 achieved.  Increase integral accuracy.
 SCF Done:  E(RB3LYP) =  -1843.89849861     A.U. after   13 cycles
            NFock= 13  Conv=0.34D-08     -V/T= 2.0044

 **********************************************************************

            Population analysis using the SCF Density.

 **********************************************************************

 Alpha  occ. eigenvalues --  -10.19326 -10.19326 -10.19326 -10.19323 -10.19323
 Alpha  occ. eigenvalues --  -10.19317 -10.19317 -10.19310 -10.19310 -10.19301
 Alpha  occ. eigenvalues --  -10.19301 -10.19295 -10.19283 -10.19276 -10.19276
 Alpha  occ. eigenvalues --  -10.19267 -10.19267 -10.19258 -10.19258 -10.19251
 Alpha  occ. eigenvalues --  -10.19251 -10.19248 -10.19248 -10.19246 -10.18188
 Alpha  occ. eigenvalues --  -10.18188 -10.18188 -10.18188 -10.18187 -10.18187
 Alpha  occ. eigenvalues --  -10.18187 -10.18187 -10.18187 -10.18187 -10.18186
 Alpha  occ. eigenvalues --  -10.18186 -10.18123 -10.18123 -10.18123 -10.18123
 Alpha  occ. eigenvalues --  -10.18123 -10.18123 -10.18123 -10.18123 -10.18123
 Alpha  occ. eigenvalues --  -10.18122 -10.18122 -10.18122  -0.90488  -0.89836
 Alpha  occ. eigenvalues --   -0.89836  -0.87907  -0.87907  -0.84815  -0.84815
 Alpha  occ. eigenvalues --   -0.82129  -0.81630  -0.81630  -0.81312  -0.81312
 Alpha  occ. eigenvalues --   -0.78641  -0.78641  -0.76812  -0.76812  -0.74865
 Alpha  occ. eigenvalues --   -0.74865  -0.73941  -0.73941  -0.72021  -0.72021
 Alpha  occ. eigenvalues --   -0.71619  -0.70715  -0.66184  -0.64433  -0.64433
 Alpha  occ. eigenvalues --   -0.63979  -0.63979  -0.62594  -0.62559  -0.62559
 Alpha  occ. eigenvalues --   -0.61682  -0.61682  -0.59665  -0.59665  -0.55508
 Alpha  occ. eigenvalues --   -0.55508  -0.54951  -0.54951  -0.54236  -0.53152
 Alpha  occ. eigenvalues --   -0.51967  -0.51561  -0.51561  -0.50645  -0.50645
 Alpha  occ. eigenvalues --   -0.50484  -0.50484  -0.48868  -0.48868  -0.47211
 Alpha  occ. eigenvalues --   -0.47211  -0.45415  -0.45415  -0.45168  -0.45036
 Alpha  occ. eigenvalues --   -0.45036  -0.44101  -0.44101  -0.43323  -0.43114
 Alpha  occ. eigenvalues --   -0.42899  -0.42898  -0.42222  -0.42222  -0.42086
 Alpha  occ. eigenvalues --   -0.42086  -0.41902  -0.41902  -0.40884  -0.40884
 Alpha  occ. eigenvalues --   -0.40834  -0.40834  -0.40330  -0.39987  -0.39987
 Alpha  occ. eigenvalues --   -0.38789  -0.38789  -0.36218  -0.36218  -0.35582
 Alpha  occ. eigenvalues --   -0.35582  -0.34546  -0.34546  -0.33919  -0.33919
 Alpha  occ. eigenvalues --   -0.33166  -0.33060  -0.32700  -0.32700  -0.32330
 Alpha  occ. eigenvalues --   -0.32330  -0.31497  -0.30759  -0.30759  -0.28835
 Alpha  occ. eigenvalues --   -0.28835  -0.27067  -0.27067  -0.23972  -0.23971
 Alpha  occ. eigenvalues --   -0.23356  -0.23356  -0.21664  -0.21664  -0.20873
 Alpha  occ. eigenvalues --   -0.19360
 Alpha virt. eigenvalues --   -0.07721  -0.05227  -0.05102  -0.05102  -0.04088
 Alpha virt. eigenvalues --   -0.04088  -0.03612  -0.03612  -0.01628  -0.01628
 Alpha virt. eigenvalues --    0.01286   0.01286   0.03677   0.03677   0.03698
 Alpha virt. eigenvalues --    0.04370   0.04370   0.04474   0.04947   0.04948
 Alpha virt. eigenvalues --    0.06693   0.06693   0.06726   0.06726   0.06737
 Alpha virt. eigenvalues --    0.06737   0.07482   0.07482   0.08539   0.08859
 Alpha virt. eigenvalues --    0.08859   0.11294   0.11294   0.12507   0.12508
 Alpha virt. eigenvalues --    0.13899   0.13899   0.14360   0.14360   0.14953
 Alpha virt. eigenvalues --    0.14953   0.15068   0.18516   0.18516   0.18615
 Alpha virt. eigenvalues --    0.18615   0.19646   0.21656   0.21656   0.22284
 Alpha virt. eigenvalues --    0.22284   0.22294   0.22294   0.22681   0.23136
 Alpha virt. eigenvalues --    0.23607   0.24349   0.24349   0.25115   0.25115
 Alpha virt. eigenvalues --    0.25550   0.26063   0.26063   0.26538   0.26538
 Alpha virt. eigenvalues --    0.27834   0.27834   0.28074   0.28074   0.30119
 Alpha virt. eigenvalues --    0.30119   0.30187   0.30188   0.31785   0.32384
 Alpha virt. eigenvalues --    0.32384   0.32509   0.32509   0.32594   0.33288
 Alpha virt. eigenvalues --    0.33288   0.33706   0.33706   0.34210   0.35171
 Alpha virt. eigenvalues --    0.35171   0.35865   0.36064   0.36466   0.36466
 Alpha virt. eigenvalues --    0.36569   0.36569   0.36750   0.36751   0.38712
 Alpha virt. eigenvalues --    0.38719   0.38719   0.38737   0.38737   0.39517
 Alpha virt. eigenvalues --    0.39518   0.39847   0.40441   0.40442   0.41215
 Alpha virt. eigenvalues --    0.41215   0.41588   0.41588   0.42123   0.42123
 Alpha virt. eigenvalues --    0.42162   0.42420   0.42420   0.42470   0.42559
 Alpha virt. eigenvalues --    0.42559   0.42992   0.43195   0.43196   0.43616
 Alpha virt. eigenvalues --    0.43617   0.43730   0.43730   0.43856   0.44619
 Alpha virt. eigenvalues --    0.44619   0.44827   0.45404   0.45404   0.45476
 Alpha virt. eigenvalues --    0.45476   0.46482   0.46482   0.47213   0.47213
 Alpha virt. eigenvalues --    0.47236   0.47281   0.47556   0.47556   0.47766
 Alpha virt. eigenvalues --    0.47766   0.48004   0.48004   0.48496   0.48496
 Alpha virt. eigenvalues --    0.48635   0.48636   0.48684   0.48684   0.48746
 Alpha virt. eigenvalues --    0.48747   0.48890   0.48890   0.49776   0.49776
 Alpha virt. eigenvalues --    0.50413   0.50414   0.50891   0.52023   0.52023
 Alpha virt. eigenvalues --    0.54818   0.54818   0.55141   0.55141   0.55301
 Alpha virt. eigenvalues --    0.55301   0.56107   0.56108   0.56132   0.56496
 Alpha virt. eigenvalues --    0.56497   0.57702   0.57703   0.58542   0.58856
 Alpha virt. eigenvalues --    0.59215   0.59216   0.59702   0.59702   0.60353
 Alpha virt. eigenvalues --    0.60353   0.60736   0.60833   0.60833   0.61344
 Alpha virt. eigenvalues --    0.61344   0.61674   0.61674   0.62552   0.62552
 Alpha virt. eigenvalues --    0.63177   0.63178   0.63356   0.63356   0.63720
 Alpha virt. eigenvalues --    0.64709   0.65024   0.65024   0.65411   0.65411
 Alpha virt. eigenvalues --    0.65489   0.65489   0.66396   0.66396   0.66994
 Alpha virt. eigenvalues --    0.68213   0.68214   0.68598   0.68598   0.69625
 Alpha virt. eigenvalues --    0.69625   0.70659   0.71970   0.71970   0.72344
 Alpha virt. eigenvalues --    0.72344   0.72441   0.72441   0.72723   0.72723
 Alpha virt. eigenvalues --    0.73147   0.73931   0.73931   0.74069   0.74069
 Alpha virt. eigenvalues --    0.74776   0.74782   0.74864   0.74865   0.75032
 Alpha virt. eigenvalues --    0.75032   0.75470   0.75470   0.75541   0.75541
 Alpha virt. eigenvalues --    0.75942   0.75943   0.76117   0.76382   0.77165
 Alpha virt. eigenvalues --    0.77165   0.78631   0.78631   0.80913   0.80913
 Alpha virt. eigenvalues --    0.81623   0.81623   0.82283   0.82284   0.82592
 Alpha virt. eigenvalues --    0.82592   0.82728   0.84096   0.84096   0.84554
 Alpha virt. eigenvalues --    0.84555   0.84763   0.84763   0.85891   0.85891
 Alpha virt. eigenvalues --    0.86346   0.86346   0.87010   0.87140   0.87140
 Alpha virt. eigenvalues --    0.88229   0.88229   0.88797   0.88798   0.90174
 Alpha virt. eigenvalues --    0.91004   0.91005   0.91430   0.91777   0.93433
 Alpha virt. eigenvalues --    0.93433   0.93536   0.93771   0.96845   0.96950
 Alpha virt. eigenvalues --    0.96950   0.97063   0.97063   0.98736   0.98736
 Alpha virt. eigenvalues --    0.98906   0.98906   1.00174   1.00411   1.00411
 Alpha virt. eigenvalues --    1.01268   1.03568   1.03568   1.03984   1.03984
 Alpha virt. eigenvalues --    1.04637   1.05700   1.05700   1.06289   1.06290
 Alpha virt. eigenvalues --    1.06433   1.06433   1.07246   1.07246   1.07536
 Alpha virt. eigenvalues --    1.09182   1.09182   1.10016   1.10017   1.10187
 Alpha virt. eigenvalues --    1.10187   1.11466   1.11466   1.11789   1.11901
 Alpha virt. eigenvalues --    1.11901   1.12934   1.12934   1.14278   1.14278
 Alpha virt. eigenvalues --    1.15490   1.15490   1.15911   1.15912   1.16032
 Alpha virt. eigenvalues --    1.17971   1.17971   1.18296   1.19687   1.19688
 Alpha virt. eigenvalues --    1.21092   1.21093   1.21390   1.21390   1.22883
 Alpha virt. eigenvalues --    1.23518   1.25389   1.26236   1.26236   1.26312
 Alpha virt. eigenvalues --    1.26312   1.26589   1.26589   1.26869   1.26870
 Alpha virt. eigenvalues --    1.27158   1.28398   1.28398   1.30573   1.30574
 Alpha virt. eigenvalues --    1.33106   1.33106   1.35099   1.35099   1.36202
 Alpha virt. eigenvalues --    1.36203   1.37304   1.37304   1.37513   1.39850
 Alpha virt. eigenvalues --    1.40446   1.41637   1.43019   1.43019   1.43342
 Alpha virt. eigenvalues --    1.43342   1.44014   1.44014   1.44418   1.44418
 Alpha virt. eigenvalues --    1.44986   1.44986   1.46727   1.46727   1.47511
 Alpha virt. eigenvalues --    1.47740   1.47740   1.47837   1.48071   1.48071
 Alpha virt. eigenvalues --    1.49635   1.49636   1.51912   1.51912   1.52294
 Alpha virt. eigenvalues --    1.52323   1.52324   1.53174   1.53174   1.53864
 Alpha virt. eigenvalues --    1.53864   1.55718   1.55718   1.55895   1.56137
 Alpha virt. eigenvalues --    1.56137   1.57002   1.57002   1.57375   1.57376
 Alpha virt. eigenvalues --    1.58389   1.58389   1.61475   1.61475   1.64861
 Alpha virt. eigenvalues --    1.64861   1.65033   1.65033   1.66103   1.66631
 Alpha virt. eigenvalues --    1.66631   1.66733   1.66733   1.67782   1.67782
 Alpha virt. eigenvalues --    1.68124   1.69091   1.69220   1.69745   1.69745
 Alpha virt. eigenvalues --    1.70972   1.70972   1.72804   1.72804   1.72942
 Alpha virt. eigenvalues --    1.72942   1.73677   1.74980   1.74980   1.77319
 Alpha virt. eigenvalues --    1.77319   1.77691   1.79805   1.79805   1.80034
 Alpha virt. eigenvalues --    1.80034   1.80179   1.80179   1.81437   1.81438
 Alpha virt. eigenvalues --    1.81931   1.84271   1.84271   1.86396   1.86763
 Alpha virt. eigenvalues --    1.87255   1.87255   1.87471   1.87471   1.87507
 Alpha virt. eigenvalues --    1.88473   1.88473   1.88641   1.88641   1.90106
 Alpha virt. eigenvalues --    1.90106   1.90755   1.90805   1.90805   1.91222
 Alpha virt. eigenvalues --    1.91371   1.91371   1.92274   1.92579   1.92580
 Alpha virt. eigenvalues --    1.92671   1.92671   1.93411   1.93411   1.95467
 Alpha virt. eigenvalues --    1.95467   1.97178   1.97178   1.99119   1.99120
 Alpha virt. eigenvalues --    1.99273   1.99273   2.00436   2.00463   2.00463
 Alpha virt. eigenvalues --    2.05192   2.05192   2.05828   2.05828   2.06074
 Alpha virt. eigenvalues --    2.06075   2.07669   2.07669   2.08553   2.10551
 Alpha virt. eigenvalues --    2.10952   2.10952   2.11391   2.11391   2.12947
 Alpha virt. eigenvalues --    2.14105   2.14105   2.15829   2.15829   2.16028
 Alpha virt. eigenvalues --    2.17595   2.19204   2.19204   2.20152   2.20152
 Alpha virt. eigenvalues --    2.20332   2.20333   2.20912   2.20912   2.21331
 Alpha virt. eigenvalues --    2.21331   2.21540   2.23013   2.23013   2.24500
 Alpha virt. eigenvalues --    2.24501   2.27887   2.29114   2.29114   2.29914
 Alpha virt. eigenvalues --    2.29914   2.30888   2.31649   2.31649   2.31953
 Alpha virt. eigenvalues --    2.31953   2.32029   2.32029   2.32706   2.32965
 Alpha virt. eigenvalues --    2.32965   2.34547   2.34547   2.36342   2.36342
 Alpha virt. eigenvalues --    2.37192   2.37192   2.40870   2.41060   2.41060
 Alpha virt. eigenvalues --    2.42335   2.42335   2.42730   2.43482   2.43482
 Alpha virt. eigenvalues --    2.44785   2.44785   2.46268   2.46268   2.47675
 Alpha virt. eigenvalues --    2.47675   2.51427   2.52574   2.52574   2.53986
 Alpha virt. eigenvalues --    2.53986   2.55121   2.57845   2.57845   2.58467
 Alpha virt. eigenvalues --    2.58467   2.60955   2.61797   2.61805   2.61805
 Alpha virt. eigenvalues --    2.63211   2.63908   2.63908   2.64565   2.64566
 Alpha virt. eigenvalues --    2.65212   2.65212   2.66323   2.66323   2.67950
 Alpha virt. eigenvalues --    2.67951   2.68647   2.68647   2.70177   2.70177
 Alpha virt. eigenvalues --    2.73417   2.73417   2.74654   2.75142   2.75142
 Alpha virt. eigenvalues --    2.78068   2.78068   2.78351   2.78351   2.79337
 Alpha virt. eigenvalues --    2.79337   2.79567   2.79567   2.80300   2.80905
 Alpha virt. eigenvalues --    2.80905   2.82854   2.87599   2.87599   2.90480
 Alpha virt. eigenvalues --    2.90507   2.90507   2.93286   2.93286   2.96074
 Alpha virt. eigenvalues --    2.96074   2.97763   2.97763   2.98272   2.99034
 Alpha virt. eigenvalues --    2.99034   3.00843   3.00843   3.01501   3.01501
 Alpha virt. eigenvalues --    3.03952   3.04623   3.04623   3.06895   3.06895
 Alpha virt. eigenvalues --    3.10665   3.10676   3.10676   3.10737   3.10737
 Alpha virt. eigenvalues --    3.11691   3.11691   3.11835   3.11835   3.11893
 Alpha virt. eigenvalues --    3.12470   3.12470   3.12899   3.12899   3.12914
 Alpha virt. eigenvalues --    3.16101   3.16101   3.16243   3.16258   3.16850
 Alpha virt. eigenvalues --    3.16850   3.17435   3.17435   3.21347   3.21347
 Alpha virt. eigenvalues --    3.23938   3.23938   3.24884   3.24884   3.25982
 Alpha virt. eigenvalues --    3.25982   3.27832   3.27832   3.28348   3.29010
 Alpha virt. eigenvalues --    3.29010   3.29116   3.29116   3.29721   3.29721
 Alpha virt. eigenvalues --    3.30126   3.30329   3.30329   3.30908   3.33350
 Alpha virt. eigenvalues --    3.33350   3.37000   3.37000   3.38105   3.38105
 Alpha virt. eigenvalues --    3.38486   3.38487   3.39661   3.39661   3.40849
 Alpha virt. eigenvalues --    3.41837   3.44029   3.44029   3.44435   3.44435
 Alpha virt. eigenvalues --    3.49597   3.49597   3.50750   3.52712   3.52712
 Alpha virt. eigenvalues --    3.53540   3.53891   3.53891   3.54485   3.54485
 Alpha virt. eigenvalues --    3.56308   3.56309   3.57723   3.58823   3.58823
 Alpha virt. eigenvalues --    3.65994   3.70461   3.76769   3.76769   3.82835
 Alpha virt. eigenvalues --    3.82835   3.83459   3.83460   3.84597   3.84597
 Alpha virt. eigenvalues --    3.86115   3.87463   3.87463   4.04297   4.07668
 Alpha virt. eigenvalues --    4.07668   4.11550   4.11550   4.15433   4.15433
 Alpha virt. eigenvalues --    4.26333   4.26333   4.42591   4.42591   4.52489
 Alpha virt. eigenvalues --    4.62192   4.62192   4.63985   4.63985   4.64665
 Alpha virt. eigenvalues --    4.64665   4.65620   4.71755   4.71755   4.79868
 Alpha virt. eigenvalues --    4.79868   4.83859  23.10063  23.20675  23.20675
 Alpha virt. eigenvalues --   23.40326  23.40326  23.56515  23.56515  23.57964
 Alpha virt. eigenvalues --   23.59739  23.59739  23.61972  23.61972  23.82501
 Alpha virt. eigenvalues --   23.82501  23.82512  23.82512  23.82660  23.82811
 Alpha virt. eigenvalues --   23.82811  23.86924  23.86924  23.93466  23.93466
 Alpha virt. eigenvalues --   23.96536  23.97002  23.97524  23.97524  23.97906
 Alpha virt. eigenvalues --   23.97906  23.98491  23.98491  23.99583  23.99583
 Alpha virt. eigenvalues --   24.01287  24.01287  24.02596  24.10792  24.10792
 Alpha virt. eigenvalues --   24.11199  24.11200  24.11392  24.11392  24.12736
 Alpha virt. eigenvalues --   24.12736  24.12883  24.12883  24.14054  24.14122
          Condensed to atoms (all electrons):
 Mulliken charges:
               1
     1  C   -0.220028
     2  C   -0.220041
     3  C    0.024999
     4  C   -0.220031
     5  C   -0.220084
     6  C    0.024945
     7  C    0.024982
     8  C    0.025059
     9  C   -0.220045
    10  C   -0.220064
    11  C   -0.220061
    12  C   -0.220035
    13  C   -0.220068
    14  C   -0.220036
    15  C   -0.220076
    16  C   -0.220031
    17  C   -0.220077
    18  C   -0.220061
    19  C   -0.220042
    20  C    0.024979
    21  C    0.025022
    22  C    0.024982
    23  C   -0.220062
    24  C    0.025014
    25  C    0.025012
    26  C   -0.220045
    27  C   -0.220041
    28  C    0.024986
    29  C    0.024973
    30  C    0.025016
    31  C    0.025042
    32  C   -0.220046
    33  C   -0.220047
    34  C    0.024992
    35  C    0.024951
    36  C    0.024994
    37  C    0.024989
    38  C   -0.220040
    39  C   -0.220083
    40  C    0.024983
    41  C    0.024999
    42  C    0.025038
    43  C   -0.220062
    44  C    0.024988
    45  C    0.025012
    46  C    0.025006
    47  C   -0.220043
    48  C    0.024997
    49  H    0.195055
    50  H    0.195054
    51  H    0.195057
    52  H    0.195051
    53  H    0.195057
    54  H    0.195049
    55  H    0.195051
    56  H    0.195054
    57  H    0.195055
    58  H    0.195053
    59  H    0.195052
    60  H    0.195055
    61  H    0.195052
    62  H    0.195052
    63  H    0.195053
    64  H    0.195055
    65  H    0.195052
    66  H    0.195054
    67  H    0.195057
    68  H    0.195058
    69  H    0.195051
    70  H    0.195049
    71  H    0.195056
    72  H    0.195054
 Sum of Mulliken charges =  -0.00000
 Mulliken charges with hydrogens summed into heavy atoms:
               1
     1  C   -0.024972
     2  C   -0.024987
     3  C    0.024999
     4  C   -0.024974
     5  C   -0.025033
     6  C    0.024945
     7  C    0.024982
     8  C    0.025059
     9  C   -0.024988
    10  C   -0.025015
    11  C   -0.025010
    12  C   -0.024980
    13  C   -0.025013
    14  C   -0.024983
    15  C   -0.025023
    16  C   -0.024975
    17  C   -0.025025
    18  C   -0.025009
    19  C   -0.024987
    20  C    0.024979
    21  C    0.025022
    22  C    0.024982
    23  C   -0.025009
    24  C    0.025014
    25  C    0.025012
    26  C   -0.024993
    27  C   -0.024987
    28  C    0.024986
    29  C    0.024973
    30  C    0.025016
    31  C    0.025042
    32  C   -0.024989
    33  C   -0.024988
    34  C    0.024992
    35  C    0.024951
    36  C    0.024994
    37  C    0.024989
    38  C   -0.024989
    39  C   -0.025035
    40  C    0.024983
    41  C    0.024999
    42  C    0.025038
    43  C   -0.025009
    44  C    0.024988
    45  C    0.025012
    46  C    0.025006
    47  C   -0.024987
    48  C    0.024997
 Electronic spatial extent (au):  <R**2>=          22667.8337
 Charge=             -0.0000 electrons
 Dipole moment (field-independent basis, Debye):
    X=             -0.0001    Y=              0.0001    Z=              0.0001  Tot=              0.0001
 Quadrupole moment (field-independent basis, Debye-Ang):
   XX=           -279.6773   YY=           -283.1186   ZZ=           -242.9269
   XY=             -4.9776   XZ=             17.4817   YZ=            -12.4536
 Traceless Quadrupole moment (field-independent basis, Debye-Ang):
   XX=            -11.1030   YY=            -14.5443   ZZ=             25.6473
   XY=             -4.9776   XZ=             17.4817   YZ=            -12.4536
 Octapole moment (field-independent basis, Debye-Ang**2):
  XXX=             -0.0022  YYY=              0.0008  ZZZ=              0.0016  XYY=             -0.0006
  XXY=             -0.0007  XXZ=             -0.0012  XZZ=             -0.0002  YZZ=              0.0011
  YYZ=              0.0002  XYZ=             -0.0001
 Hexadecapole moment (field-independent basis, Debye-Ang**3):
 XXXX=         -13656.2883 YYYY=         -14564.5086 ZZZZ=          -5349.0144 XXXY=           -648.7325
 XXXZ=           2278.3997 YYYX=           -664.8641 YYYZ=          -1663.4224 ZZZX=           1673.3140
 ZZZY=          -1192.0142 XXYY=          -4717.1666 XXZZ=          -3147.4377 YYZZ=          -3162.7329
 XXYZ=           -486.3805 YYXZ=            739.4335 ZZXY=            -22.1189
 N-N= 5.460479028333D+03 E-N=-1.519937248577D+04  KE= 1.835872150310D+03
 There are a total of     1650912 grid points.
 ElSum from          density=      311.9998548632
 ElSum from atomic densities=      312.0000197455
 Hirshfeld populations at iteration   1 (CA, CB, DipXYZ):
               1          2          3          4          5
     1  C    3.020940   3.020940   0.057027   0.031221   0.011481
     2  C    3.020940   3.020940  -0.042976   0.016594   0.047287
     3  C    3.001027   3.001027  -0.012668   0.002850   0.020486
     4  C    3.020938   3.020938   0.049607   0.014356  -0.041119
     5  C    3.020941   3.020941  -0.065958  -0.002536   0.000262
     6  C    3.001027   3.001027   0.021401   0.007825   0.008286
     7  C    3.001027   3.001027   0.014302   0.004925  -0.018946
     8  C    3.001025   3.001025  -0.023629  -0.000662  -0.005356
     9  C    3.020937   3.020937   0.010536  -0.065115   0.002622
    10  C    3.020943   3.020943   0.005979   0.053479   0.038213
    11  C    3.020942   3.020942   0.057117   0.031077   0.011389
    12  C    3.020939   3.020939  -0.040687  -0.042868   0.029423
    13  C    3.020939   3.020939   0.059332  -0.028225  -0.006380
    14  C    3.020939   3.020939  -0.043052   0.016426   0.047261
    15  C    3.020944   3.020944   0.010367  -0.065138   0.002691
    16  C    3.020939   3.020939   0.005789   0.053470   0.038301
    17  C    3.020940   3.020940  -0.040764  -0.042733   0.029512
    18  C    3.020943   3.020943   0.059411  -0.028048  -0.006352
    19  C    3.020942   3.020942  -0.038982   0.053032   0.005287
    20  C    3.001034   3.001034   0.004504  -0.012874  -0.020083
    21  C    3.001032   3.001032   0.002815   0.015955   0.018048
    22  C    3.001033   3.001033  -0.015844   0.018127  -0.003138
    23  C    3.020946   3.020946   0.022816  -0.041222  -0.046251
    24  C    3.001033   3.001033   0.021000  -0.011794   0.002882
    25  C    3.001027   3.001027  -0.010706  -0.016465   0.014214
    26  C    3.020939   3.020939   0.018647   0.061425  -0.015346
    27  C    3.020937   3.020937  -0.035129  -0.049727  -0.025503
    28  C    3.001028   3.001028   0.005130   0.016300   0.017209
    29  C    3.001026   3.001026   0.005193   0.021143  -0.010668
    30  C    3.001026   3.001026  -0.012485  -0.015355  -0.014007
    31  C    3.001030   3.001030   0.006633  -0.022667   0.005522
    32  C    3.020942   3.020942  -0.039152   0.052905   0.005312
    33  C    3.020942   3.020942   0.022620  -0.041372  -0.046219
    34  C    3.001029   3.001029  -0.011551   0.005104   0.020697
    35  C    3.001032   3.001032  -0.013883   0.019603  -0.003493
    36  C    3.001030   3.001030   0.006429  -0.011400  -0.020430
    37  C    3.001025   3.001025   0.022083  -0.009547   0.003096
    38  C    3.020940   3.020940  -0.065956  -0.002730   0.000213
    39  C    3.020945   3.020945   0.049611   0.014151  -0.041168
    40  C    3.001026   3.001026  -0.011984  -0.014533   0.015289
    41  C    3.001028   3.001028  -0.023740   0.001777  -0.004623
    42  C    3.001027   3.001027   0.014226   0.007337  -0.018209
    43  C    3.020943   3.020943  -0.034967  -0.049803  -0.025578
    44  C    3.001030   3.001030   0.003115   0.022064  -0.009588
    45  C    3.001026   3.001026   0.004286  -0.023012   0.006374
    46  C    3.001029   3.001029  -0.014580  -0.014455  -0.012907
    47  C    3.020941   3.020941   0.018821   0.061367  -0.015430
    48  C    3.001027   3.001027   0.020143   0.009760   0.009352
    49  H    0.478027   0.478027   0.090476   0.012100   0.114745
    50  H    0.478027   0.478027   0.001468  -0.000921   0.146614
    51  H    0.478027   0.478027   0.009813   0.053599  -0.136122
    52  H    0.478028   0.478028  -0.105692   0.036704  -0.094768
    53  H    0.478027   0.478027   0.060821  -0.091491   0.097101
    54  H    0.478028   0.478028   0.056230   0.027040   0.132689
    55  H    0.478028   0.478028   0.102262  -0.005881   0.104914
    56  H    0.478028   0.478028   0.004525  -0.079781   0.122935
    57  H    0.478028   0.478028   0.093534  -0.066757   0.091069
    58  H    0.478028   0.478028  -0.008795  -0.022124   0.144679
    59  H    0.478028   0.478028   0.038775  -0.094717   0.104998
    60  H    0.478027   0.478027   0.034184   0.023816   0.140580
    61  H    0.478027   0.478027  -0.007255  -0.061800   0.132766
    62  H    0.478028   0.478028   0.103798  -0.045550   0.093008
    63  H    0.478028   0.478028  -0.007302  -0.006209  -0.146313
    64  H    0.478028   0.478028  -0.069039   0.087994  -0.094813
    65  H    0.478028   0.478028  -0.030381   0.093645  -0.108657
    66  H    0.478027   0.478027  -0.084147  -0.017451  -0.118797
    67  H    0.478027   0.478027  -0.087694   0.073888  -0.091374
    68  H    0.478027   0.478027  -0.025963  -0.020317  -0.142871
    69  H    0.478028   0.478028  -0.104815   0.014074  -0.101560
    70  H    0.478029   0.478029   0.010692   0.030965  -0.142920
    71  H    0.478028   0.478028  -0.010845   0.085128  -0.118889
    72  H    0.478028   0.478028  -0.064614  -0.025974  -0.129033
       Tot 155.999927 155.999927   0.000283  -0.000030  -0.000106

 Dip from Atomic Chgs             -0.000423  -0.000071   0.000295
         Total Dipole             -0.000141  -0.000100   0.000189

 Hirshfeld charges, spin densities, dipoles, and CM5 charges using IRadAn=      5:
              Q-H        S-H        Dx         Dy         Dz        Q-CM5   
     1  C   -0.041879   0.000000   0.057027   0.031221   0.011481  -0.094910
     2  C   -0.041880   0.000000  -0.042976   0.016594   0.047287  -0.094911
     3  C   -0.002055   0.000000  -0.012668   0.002850   0.020486  -0.006302
     4  C   -0.041877   0.000000   0.049607   0.014356  -0.041119  -0.094908
     5  C   -0.041882   0.000000  -0.065958  -0.002536   0.000262  -0.094913
     6  C   -0.002054   0.000000   0.021401   0.007825   0.008286  -0.006301
     7  C   -0.002054   0.000000   0.014302   0.004925  -0.018946  -0.006302
     8  C   -0.002049   0.000000  -0.023629  -0.000662  -0.005356  -0.006296
     9  C   -0.041875   0.000000   0.010536  -0.065115   0.002622  -0.094906
    10  C   -0.041886   0.000000   0.005979   0.053479   0.038213  -0.094917
    11  C   -0.041883   0.000000   0.057117   0.031077   0.011389  -0.094914
    12  C   -0.041877   0.000000  -0.040687  -0.042868   0.029423  -0.094908
    13  C   -0.041877   0.000000   0.059332  -0.028225  -0.006380  -0.094908
    14  C   -0.041878   0.000000  -0.043052   0.016426   0.047261  -0.094909
    15  C   -0.041887   0.000000   0.010367  -0.065138   0.002691  -0.094918
    16  C   -0.041879   0.000000   0.005789   0.053470   0.038301  -0.094910
    17  C   -0.041879   0.000000  -0.040764  -0.042733   0.029512  -0.094910
    18  C   -0.041886   0.000000   0.059411  -0.028048  -0.006352  -0.094917
    19  C   -0.041885   0.000000  -0.038982   0.053032   0.005287  -0.094916
    20  C   -0.002069   0.000000   0.004504  -0.012874  -0.020083  -0.006316
    21  C   -0.002065   0.000000   0.002815   0.015955   0.018048  -0.006312
    22  C   -0.002066   0.000000  -0.015844   0.018127  -0.003138  -0.006314
    23  C   -0.041892   0.000000   0.022816  -0.041222  -0.046251  -0.094923
    24  C   -0.002066   0.000000   0.021000  -0.011794   0.002882  -0.006313
    25  C   -0.002054   0.000000  -0.010706  -0.016465   0.014214  -0.006301
    26  C   -0.041879   0.000000   0.018647   0.061425  -0.015346  -0.094910
    27  C   -0.041874   0.000000  -0.035129  -0.049727  -0.025503  -0.094904
    28  C   -0.002056   0.000000   0.005130   0.016300   0.017209  -0.006304
    29  C   -0.002052   0.000000   0.005193   0.021143  -0.010668  -0.006299
    30  C   -0.002051   0.000000  -0.012485  -0.015355  -0.014007  -0.006298
    31  C   -0.002060   0.000000   0.006633  -0.022667   0.005522  -0.006307
    32  C   -0.041883   0.000000  -0.039152   0.052905   0.005312  -0.094914
    33  C   -0.041885   0.000000   0.022620  -0.041372  -0.046219  -0.094916
    34  C   -0.002057   0.000000  -0.011551   0.005104   0.020697  -0.006304
    35  C   -0.002063   0.000000  -0.013883   0.019603  -0.003493  -0.006311
    36  C   -0.002060   0.000000   0.006429  -0.011400  -0.020430  -0.006307
    37  C   -0.002050   0.000000   0.022083  -0.009547   0.003096  -0.006297
    38  C   -0.041881   0.000000  -0.065956  -0.002730   0.000213  -0.094912
    39  C   -0.041890   0.000000   0.049611   0.014151  -0.041168  -0.094921
    40  C   -0.002051   0.000000  -0.011984  -0.014533   0.015289  -0.006298
    41  C   -0.002056   0.000000  -0.023740   0.001777  -0.004623  -0.006303
    42  C   -0.002055   0.000000   0.014226   0.007337  -0.018209  -0.006302
    43  C   -0.041885   0.000000  -0.034967  -0.049803  -0.025578  -0.094916
    44  C   -0.002060   0.000000   0.003115   0.022064  -0.009588  -0.006308
    45  C   -0.002052   0.000000   0.004286  -0.023012   0.006374  -0.006299
    46  C   -0.002057   0.000000  -0.014580  -0.014455  -0.012907  -0.006305
    47  C   -0.041881   0.000000   0.018821   0.061367  -0.015430  -0.094912
    48  C   -0.002054   0.000000   0.020143   0.009760   0.009352  -0.006302
    49  H    0.043946   0.000000   0.090476   0.012100   0.114745   0.101224
    50  H    0.043945   0.000000   0.001468  -0.000921   0.146614   0.101223
    51  H    0.043945   0.000000   0.009813   0.053599  -0.136122   0.101223
    52  H    0.043945   0.000000  -0.105692   0.036704  -0.094768   0.101223
    53  H    0.043945   0.000000   0.060821  -0.091491   0.097101   0.101223
    54  H    0.043943   0.000000   0.056230   0.027040   0.132689   0.101222
    55  H    0.043944   0.000000   0.102262  -0.005881   0.104914   0.101222
    56  H    0.043944   0.000000   0.004525  -0.079781   0.122935   0.101223
    57  H    0.043945   0.000000   0.093534  -0.066757   0.091069   0.101223
    58  H    0.043945   0.000000  -0.008795  -0.022124   0.144679   0.101223
    59  H    0.043944   0.000000   0.038775  -0.094717   0.104998   0.101222
    60  H    0.043946   0.000000   0.034184   0.023816   0.140580   0.101224
    61  H    0.043946   0.000000  -0.007255  -0.061800   0.132766   0.101224
    62  H    0.043944   0.000000   0.103798  -0.045550   0.093008   0.101222
    63  H    0.043944   0.000000  -0.007302  -0.006209  -0.146313   0.101222
    64  H    0.043945   0.000000  -0.069039   0.087994  -0.094813   0.101223
    65  H    0.043945   0.000000  -0.030381   0.093645  -0.108657   0.101223
    66  H    0.043946   0.000000  -0.084147  -0.017451  -0.118797   0.101224
    67  H    0.043945   0.000000  -0.087694   0.073888  -0.091374   0.101223
    68  H    0.043945   0.000000  -0.025963  -0.020317  -0.142871   0.101223
    69  H    0.043944   0.000000  -0.104815   0.014074  -0.101560   0.101222
    70  H    0.043942   0.000000   0.010692   0.030965  -0.142920   0.101220
    71  H    0.043945   0.000000  -0.010845   0.085128  -0.118889   0.101223
    72  H    0.043943   0.000000  -0.064614  -0.025974  -0.129033   0.101222
       Tot   0.000145   0.000000   0.000283  -0.000030  -0.000106   0.000145
 Hirshfeld charges with hydrogens summed into heavy atoms:
              Q-H       Q-CM5   
     1  C    0.002067   0.006314
     2  C    0.002065   0.006312
     3  C   -0.002055  -0.006302
     4  C    0.002069   0.006316
     5  C    0.002063   0.006310
     6  C   -0.002054  -0.006301
     7  C   -0.002054  -0.006302
     8  C   -0.002049  -0.006296
     9  C    0.002070   0.006318
    10  C    0.002057   0.006305
    11  C    0.002061   0.006308
    12  C    0.002067   0.006314
    13  C    0.002068   0.006315
    14  C    0.002067   0.006314
    15  C    0.002057   0.006304
    16  C    0.002067   0.006315
    17  C    0.002067   0.006314
    18  C    0.002058   0.006305
    19  C    0.002060   0.006307
    20  C   -0.002069  -0.006316
    21  C   -0.002065  -0.006312
    22  C   -0.002066  -0.006314
    23  C    0.002052   0.006299
    24  C   -0.002066  -0.006313
    25  C   -0.002054  -0.006301
    26  C    0.002066   0.006313
    27  C    0.002072   0.006319
    28  C   -0.002056  -0.006304
    29  C   -0.002052  -0.006299
    30  C   -0.002051  -0.006298
    31  C   -0.002060  -0.006307
    32  C    0.002062   0.006309
    33  C    0.002060   0.006308
    34  C   -0.002057  -0.006304
    35  C   -0.002063  -0.006311
    36  C   -0.002060  -0.006307
    37  C   -0.002050  -0.006297
    38  C    0.002063   0.006310
    39  C    0.002053   0.006300
    40  C   -0.002051  -0.006298
    41  C   -0.002056  -0.006303
    42  C   -0.002055  -0.006302
    43  C    0.002058   0.006305
    44  C   -0.002060  -0.006308
    45  C   -0.002052  -0.006299
    46  C   -0.002057  -0.006305
    47  C    0.002064   0.006311
    48  C   -0.002054  -0.006302
 
 EQQ=  0.00000000000     EQD=  0.00000000000     EDD= 0.243579374215E-01
 EQQ+QD+DD= 0.243579374215E-01
 
 Running external command "gaunbo6 R"
         input file       "/tmp/6_6_armCNB_sgp-915.tmp/Gau-73327.EIn"
         output file      "/tmp/6_6_armCNB_sgp-915.tmp/Gau-73327.EOu"
         message file     "/tmp/6_6_armCNB_sgp-915.tmp/Gau-73327.EMs"
         fchk file        "/tmp/6_6_armCNB_sgp-915.tmp/Gau-73327.EFC"
         mat. el file     "/tmp/6_6_armCNB_sgp-915.tmp/Gau-73327.EUF"

 Writing WrtUnf unformatted file "/tmp/6_6_armCNB_sgp-915.tmp/Gau-73327.EUF"
 Gaussian matrix elements                                         Version   2 NLab=11 Len12L=8 Len4L=8
 Write SHELL TO ATOM MAP                   from file     0 offset           0 length                 312 to matrix element file.
 Write SHELL TYPES                         from file     0 offset           0 length                 312 to matrix element file.
 Write NUMBER OF PRIMITIVES PER SHELL      from file     0 offset           0 length                 312 to matrix element file.
 Write PRIMITIVE EXPONENTS                 from file     0 offset           0 length                 696 to matrix element file.
 Write CONTRACTION COEFFICIENTS            from file     0 offset           0 length                 696 to matrix element file.
 Write P(S=P) CONTRACTION COEFFICIENTS     from file     0 offset           0 length                 696 to matrix element file.
 Write COORDINATES OF EACH SHELL           from file     0 offset           0 length                 936 to matrix element file.
 Write BONDS PER ATOM                      from file     0 offset           0 length                  72 to matrix element file.
 Write BONDED ATOMS                        from file     0 offset           0 length                 168 to matrix element file.
 Write BOND TYPES                          from file     0 offset           0 length                 168 to matrix element file.
 Write GAUSSIAN SCALARS                    from file   501 offset           0 to matrix element file.
 Write INTEGER ISO                         from file     0 offset           0 length                  72 to matrix element file.
 Write INTEGER SPIN                        from file     0 offset           0 length                  72 to matrix element file.
 Write REAL ZEFFECTIVE                     from file     0 offset           0 length                  72 to matrix element file.
 Write REAL GFACTOR                        from file     0 offset           0 length                  72 to matrix element file.
 Write REAL ZNUCLEAR                       from file     0 offset           0 length                  72 to matrix element file.
 Write MULLIKEN CHARGES                    from file     0 offset           0 length                  72 to matrix element file.
 Write NUCLEAR GRADIENT                    from file 10584 offset           0 length                 216 to matrix element file.
 Array NUCLEAR FORCE CONSTANTS              on  file 10585 does not exist.
 Write ELECTRIC DIPOLE MOMENT              from file     0 offset           0 length                   3 to matrix element file.
 Write NON-ADIABATIC COUPLING              from file 10810 offset           0 length                 216 to matrix element file.
 Write OVERLAP                             from file 10514 offset           0 length              438516 to matrix element file.
 Write CORE HAMILTONIAN ALPHA              from file 10515 offset           0 length              438516 to matrix element file.
 Write CORE HAMILTONIAN BETA               from file 10515 offset      438516 length              438516 to matrix element file.
 Write KINETIC ENERGY                      from file 10516 offset           0 length              438516 to matrix element file.
 Write ORTHOGONAL BASIS                    from file 10685 offset           0 length              876096 to matrix element file.
 Write DIPOLE INTEGRALS                    from file 10518 offset           0 length             1315548 to matrix element file.
 Array DIP VEL INTEGRALS                    on  file 10572 does not exist.
 Array R X DEL INTEGRALS                    on  file 10572 does not exist.
 Write ALPHA ORBITAL ENERGIES              from file     0 offset           0 length                 936 to matrix element file.
 Write ALPHA MO COEFFICIENTS               from file 10524 offset           0 length              876096 to matrix element file.
 Write ALPHA DENSITY MATRIX                from file     0 offset           0 length              438516 to matrix element file.
 Write ALPHA SCF DENSITY MATRIX            from file 10528 offset           0 length              438516 to matrix element file.
 Write ALPHA FOCK MATRIX                   from file 10536 offset           0 length              438516 to matrix element file.
 Write ALPHA SCF DENSITY                   from file     0 offset           0 length              438516 to matrix element file.
 No 2e integrals to process.
 Perform NBO analysis...

 *********************************** NBO 7.0 ***********************************
             N A T U R A L   A T O M I C   O R B I T A L   A N D
          N A T U R A L   B O N D   O R B I T A L   A N A L Y S I S
 ***************************** Yang Wang (I101673) *****************************
  (c) Copyright 1996-2019 Board of Regents of the University of Wisconsin System
      on behalf of the Theoretical Chemistry Institute.  All rights reserved.

          Cite this program [NBO 7.0.4 (28-Mar-2019)] as:

          NBO 7.0.  E. D. Glendening, J. K. Badenhoop, A. E. Reed,
          J. E. Carpenter, J. A. Bohmann, C. M. Morales, P. Karafiloglou,
          C. R. Landis, and F. Weinhold, Theoretical Chemistry Institute,
          University of Wisconsin, Madison, WI (2018)

 Filename set to /tmp/6_6_armCNB_sgp-915.tmp/Gau-73327

 Job title:  From ../..//6_6_armCNB_opt.out


 NATURAL POPULATIONS:  Natural atomic orbital occupancies

  NAO Atom No lang   Type(AO)    Occupancy      Energy
 -------------------------------------------------------
   1    C  1  s      Cor( 1s)     1.99999     -10.18145
   2    C  1  s      Val( 2s)     0.93482      -0.07744
   3    C  1  s      Ryd( 3s)     0.00141       1.18603
   4    C  1  s      Ryd( 4s)     0.00001      22.36317
   5    C  1  px     Val( 2p)     1.09889      -0.05325
   6    C  1  px     Ryd( 3p)     0.00397       1.10802
   7    C  1  px     Ryd( 4p)     0.00012       3.07359
   8    C  1  py     Val( 2p)     1.02193      -0.07873
   9    C  1  py     Ryd( 3p)     0.00145       0.66543
  10    C  1  py     Ryd( 4p)     0.00009       2.92163
  11    C  1  pz     Val( 2p)     1.10422      -0.03655
  12    C  1  pz     Ryd( 3p)     0.00470       1.03529
  13    C  1  pz     Ryd( 4p)     0.00011       3.12493
  14    C  1  dxy    Ryd( 3d)     0.00073       2.05131
  15    C  1  dxz    Ryd( 3d)     0.00131       1.98340
  16    C  1  dyz    Ryd( 3d)     0.00057       1.81995
  17    C  1  dx2y2  Ryd( 3d)     0.00080       1.72091
  18    C  1  dz2    Ryd( 3d)     0.00089       2.05821

  19    C  2  s      Cor( 1s)     1.99999     -10.18145
  20    C  2  s      Val( 2s)     0.93482      -0.07744
  21    C  2  s      Ryd( 3s)     0.00141       1.18604
  22    C  2  s      Ryd( 4s)     0.00001      22.36315
  23    C  2  px     Val( 2p)     1.05405      -0.02454
  24    C  2  px     Ryd( 3p)     0.00306       0.92565
  25    C  2  px     Ryd( 4p)     0.00017       3.26769
  26    C  2  py     Val( 2p)     1.00584      -0.09933
  27    C  2  py     Ryd( 3p)     0.00150       0.60206
  28    C  2  py     Ryd( 4p)     0.00005       2.79068
  29    C  2  pz     Val( 2p)     1.16514      -0.04466
  30    C  2  pz     Ryd( 3p)     0.00556       1.28104
  31    C  2  pz     Ryd( 4p)     0.00010       3.06177
  32    C  2  dxy    Ryd( 3d)     0.00066       1.92573
  33    C  2  dxz    Ryd( 3d)     0.00094       2.18013
  34    C  2  dyz    Ryd( 3d)     0.00042       1.60500
  35    C  2  dx2y2  Ryd( 3d)     0.00073       1.94366
  36    C  2  dz2    Ryd( 3d)     0.00154       1.97925

  37    C  3  s      Cor( 1s)     1.99999     -10.19277
  38    C  3  s      Val( 2s)     0.85653      -0.03532
  39    C  3  s      Ryd( 3s)     0.00090       1.05308
  40    C  3  s      Ryd( 4s)     0.00001      22.41201
  41    C  3  px     Val( 2p)     1.07521      -0.01690
  42    C  3  px     Ryd( 3p)     0.00332       1.60169
  43    C  3  px     Ryd( 4p)     0.00016       3.58409
  44    C  3  py     Val( 2p)     1.00255      -0.09890
  45    C  3  py     Ryd( 3p)     0.00245       0.67452
  46    C  3  py     Ryd( 4p)     0.00003       2.87380
  47    C  3  pz     Val( 2p)     1.07693      -0.02521
  48    C  3  pz     Ryd( 3p)     0.00426       1.40969
  49    C  3  pz     Ryd( 4p)     0.00017       3.53581
  50    C  3  dxy    Ryd( 3d)     0.00064       1.83206
  51    C  3  dxz    Ryd( 3d)     0.00080       2.29199
  52    C  3  dyz    Ryd( 3d)     0.00057       1.78059
  53    C  3  dx2y2  Ryd( 3d)     0.00074       2.11908
  54    C  3  dz2    Ryd( 3d)     0.00081       2.32052

  55    C  4  s      Cor( 1s)     1.99999     -10.18145
  56    C  4  s      Val( 2s)     0.93482      -0.07744
  57    C  4  s      Ryd( 3s)     0.00141       1.18604
  58    C  4  s      Ryd( 4s)     0.00001      22.36316
  59    C  4  px     Val( 2p)     1.06388      -0.01365
  60    C  4  px     Ryd( 3p)     0.00266       0.94403
  61    C  4  px     Ryd( 4p)     0.00020       3.33808
  62    C  4  py     Val( 2p)     1.02290      -0.10201
  63    C  4  py     Ryd( 3p)     0.00209       0.64967
  64    C  4  py     Ryd( 4p)     0.00003       2.76014
  65    C  4  pz     Val( 2p)     1.13825      -0.05287
  66    C  4  pz     Ryd( 3p)     0.00537       1.21503
  67    C  4  pz     Ryd( 4p)     0.00009       3.02193
  68    C  4  dxy    Ryd( 3d)     0.00071       1.81819
  69    C  4  dxz    Ryd( 3d)     0.00092       2.12807
  70    C  4  dyz    Ryd( 3d)     0.00073       1.70393
  71    C  4  dx2y2  Ryd( 3d)     0.00077       2.09937
  72    C  4  dz2    Ryd( 3d)     0.00116       1.88422

  73    C  5  s      Cor( 1s)     1.99999     -10.18145
  74    C  5  s      Val( 2s)     0.93482      -0.07745
  75    C  5  s      Ryd( 3s)     0.00141       1.18604
  76    C  5  s      Ryd( 4s)     0.00001      22.36315
  77    C  5  px     Val( 2p)     1.13425      -0.03516
  78    C  5  px     Ryd( 3p)     0.00379       1.18951
  79    C  5  px     Ryd( 4p)     0.00016       3.17758
  80    C  5  py     Val( 2p)     1.01493      -0.09659
  81    C  5  py     Ryd( 3p)     0.00234       0.65968
  82    C  5  py     Ryd( 4p)     0.00004       2.80001
  83    C  5  pz     Val( 2p)     1.07586      -0.03678
  84    C  5  pz     Ryd( 3p)     0.00399       0.95957
  85    C  5  pz     Ryd( 4p)     0.00012       3.14256
  86    C  5  dxy    Ryd( 3d)     0.00069       1.67202
  87    C  5  dxz    Ryd( 3d)     0.00130       2.10309
  88    C  5  dyz    Ryd( 3d)     0.00065       1.88827
  89    C  5  dx2y2  Ryd( 3d)     0.00098       2.04749
  90    C  5  dz2    Ryd( 3d)     0.00067       1.92291

  91    C  6  s      Cor( 1s)     1.99999     -10.19277
  92    C  6  s      Val( 2s)     0.85653      -0.03532
  93    C  6  s      Ryd( 3s)     0.00090       1.05309
  94    C  6  s      Ryd( 4s)     0.00001      22.41201
  95    C  6  px     Val( 2p)     1.07146      -0.01669
  96    C  6  px     Ryd( 3p)     0.00284       1.42191
  97    C  6  px     Ryd( 4p)     0.00017       3.54973
  98    C  6  py     Val( 2p)     1.00586      -0.09424
  99    C  6  py     Ryd( 3p)     0.00329       0.79396
 100    C  6  py     Ryd( 4p)     0.00003       2.93498
 101    C  6  pz     Val( 2p)     1.07739      -0.03008
 102    C  6  pz     Ryd( 3p)     0.00390       1.47002
 103    C  6  pz     Ryd( 4p)     0.00017       3.50899
 104    C  6  dxy    Ryd( 3d)     0.00059       1.78279
 105    C  6  dxz    Ryd( 3d)     0.00092       2.37174
 106    C  6  dyz    Ryd( 3d)     0.00064       1.92825
 107    C  6  dx2y2  Ryd( 3d)     0.00072       2.15567
 108    C  6  dz2    Ryd( 3d)     0.00069       2.10580

 109    C  7  s      Cor( 1s)     1.99999     -10.19277
 110    C  7  s      Val( 2s)     0.85653      -0.03532
 111    C  7  s      Ryd( 3s)     0.00090       1.05308
 112    C  7  s      Ryd( 4s)     0.00001      22.41201
 113    C  7  px     Val( 2p)     1.06353      -0.02728
 114    C  7  px     Ryd( 3p)     0.00426       1.56355
 115    C  7  px     Ryd( 4p)     0.00014       3.52134
 116    C  7  py     Val( 2p)     1.01484      -0.09278
 117    C  7  py     Ryd( 3p)     0.00205       0.71648
 118    C  7  py     Ryd( 4p)     0.00004       2.91371
 119    C  7  pz     Val( 2p)     1.07633      -0.02095
 120    C  7  pz     Ryd( 3p)     0.00372       1.40586
 121    C  7  pz     Ryd( 4p)     0.00018       3.55865
 122    C  7  dxy    Ryd( 3d)     0.00068       1.93842
 123    C  7  dxz    Ryd( 3d)     0.00081       2.32613
 124    C  7  dyz    Ryd( 3d)     0.00061       1.84803
 125    C  7  dx2y2  Ryd( 3d)     0.00066       1.96308
 126    C  7  dz2    Ryd( 3d)     0.00080       2.26857

 127    C  8  s      Cor( 1s)     1.99999     -10.19277
 128    C  8  s      Val( 2s)     0.85653      -0.03532
 129    C  8  s      Ryd( 3s)     0.00090       1.05309
 130    C  8  s      Ryd( 4s)     0.00001      22.41201
 131    C  8  px     Val( 2p)     1.06126      -0.03044
 132    C  8  px     Ryd( 3p)     0.00424       1.39040
 133    C  8  px     Ryd( 4p)     0.00013       3.46942
 134    C  8  py     Val( 2p)     1.02940      -0.07555
 135    C  8  py     Ryd( 3p)     0.00167       0.87175
 136    C  8  py     Ryd( 4p)     0.00007       3.04933
 137    C  8  pz     Val( 2p)     1.06403      -0.03502
 138    C  8  pz     Ryd( 3p)     0.00412       1.42374
 139    C  8  pz     Ryd( 4p)     0.00016       3.47495
 140    C  8  dxy    Ryd( 3d)     0.00071       2.06392
 141    C  8  dxz    Ryd( 3d)     0.00076       2.25184
 142    C  8  dyz    Ryd( 3d)     0.00066       1.97144
 143    C  8  dx2y2  Ryd( 3d)     0.00069       1.93354
 144    C  8  dz2    Ryd( 3d)     0.00073       2.12350

 145    C  9  s      Cor( 1s)     1.99999     -10.18145
 146    C  9  s      Val( 2s)     0.93482      -0.07744
 147    C  9  s      Ryd( 3s)     0.00141       1.18604
 148    C  9  s      Ryd( 4s)     0.00001      22.36316
 149    C  9  px     Val( 2p)     1.02969      -0.09528
 150    C  9  px     Ryd( 3p)     0.00243       0.68689
 151    C  9  px     Ryd( 4p)     0.00004       2.79780
 152    C  9  py     Val( 2p)     1.11907      -0.03190
 153    C  9  py     Ryd( 3p)     0.00367       1.16153
 154    C  9  py     Ryd( 4p)     0.00016       3.20933
 155    C  9  pz     Val( 2p)     1.07627      -0.04135
 156    C  9  pz     Ryd( 3p)     0.00402       0.96029
 157    C  9  pz     Ryd( 4p)     0.00012       3.11304
 158    C  9  dxy    Ryd( 3d)     0.00081       1.73536
 159    C  9  dxz    Ryd( 3d)     0.00078       1.88597
 160    C  9  dyz    Ryd( 3d)     0.00119       2.10293
 161    C  9  dx2y2  Ryd( 3d)     0.00086       2.02576
 162    C  9  dz2    Ryd( 3d)     0.00064       1.88376

 163    C 10  s      Cor( 1s)     1.99999     -10.18145
 164    C 10  s      Val( 2s)     0.93482      -0.07744
 165    C 10  s      Ryd( 3s)     0.00141       1.18604
 166    C 10  s      Ryd( 4s)     0.00001      22.36315
 167    C 10  px     Val( 2p)     1.02673      -0.09359
 168    C 10  px     Ryd( 3p)     0.00248       0.68644
 169    C 10  px     Ryd( 4p)     0.00004       2.81024
 170    C 10  py     Val( 2p)     1.06842      -0.02007
 171    C 10  py     Ryd( 3p)     0.00239       0.93841
 172    C 10  py     Ryd( 4p)     0.00020       3.29824
 173    C 10  pz     Val( 2p)     1.12989      -0.05486
 174    C 10  pz     Ryd( 3p)     0.00524       1.18390
 175    C 10  pz     Ryd( 4p)     0.00008       3.01167
 176    C 10  dxy    Ryd( 3d)     0.00076       1.85145
 177    C 10  dxz    Ryd( 3d)     0.00080       1.77759
 178    C 10  dyz    Ryd( 3d)     0.00094       2.06397
 179    C 10  dx2y2  Ryd( 3d)     0.00075       2.07884
 180    C 10  dz2    Ryd( 3d)     0.00104       1.86194

 181    C 11  s      Cor( 1s)     1.99999     -10.18145
 182    C 11  s      Val( 2s)     0.93482      -0.07744
 183    C 11  s      Ryd( 3s)     0.00141       1.18604
 184    C 11  s      Ryd( 4s)     0.00001      22.36316
 185    C 11  px     Val( 2p)     1.11187      -0.05665
 186    C 11  px     Ryd( 3p)     0.00299       1.01502
 187    C 11  px     Ryd( 4p)     0.00012       3.03435
 188    C 11  py     Val( 2p)     1.03160      -0.06036
 189    C 11  py     Ryd( 3p)     0.00292       0.81142
 190    C 11  py     Ryd( 4p)     0.00010       3.03969
 191    C 11  pz     Val( 2p)     1.08157      -0.05152
 192    C 11  pz     Ryd( 3p)     0.00421       0.98230
 193    C 11  pz     Ryd( 4p)     0.00010       3.04612
 194    C 11  dxy    Ryd( 3d)     0.00080       2.02713
 195    C 11  dxz    Ryd( 3d)     0.00131       1.90126
 196    C 11  dyz    Ryd( 3d)     0.00070       2.04468
 197    C 11  dx2y2  Ryd( 3d)     0.00088       1.83636
 198    C 11  dz2    Ryd( 3d)     0.00061       1.82435

 199    C 12  s      Cor( 1s)     1.99999     -10.18145
 200    C 12  s      Val( 2s)     0.93482      -0.07744
 201    C 12  s      Ryd( 3s)     0.00141       1.18604
 202    C 12  s      Ryd( 4s)     0.00001      22.36315
 203    C 12  px     Val( 2p)     1.05050      -0.02933
 204    C 12  px     Ryd( 3p)     0.00308       0.90937
 205    C 12  px     Ryd( 4p)     0.00016       3.23654
 206    C 12  py     Val( 2p)     1.06588      -0.08113
 207    C 12  py     Ryd( 3p)     0.00217       0.80049
 208    C 12  py     Ryd( 4p)     0.00008       2.88666
 209    C 12  pz     Val( 2p)     1.10866      -0.05806
 210    C 12  pz     Ryd( 3p)     0.00487       1.09887
 211    C 12  pz     Ryd( 4p)     0.00008       2.99696
 212    C 12  dxy    Ryd( 3d)     0.00079       2.08203
 213    C 12  dxz    Ryd( 3d)     0.00080       2.04888
 214    C 12  dyz    Ryd( 3d)     0.00111       1.81348
 215    C 12  dx2y2  Ryd( 3d)     0.00080       1.86596
 216    C 12  dz2    Ryd( 3d)     0.00079       1.82342

 217    C 13  s      Cor( 1s)     1.99999     -10.18145
 218    C 13  s      Val( 2s)     0.93482      -0.07744
 219    C 13  s      Ryd( 3s)     0.00141       1.18604
 220    C 13  s      Ryd( 4s)     0.00001      22.36316
 221    C 13  px     Val( 2p)     1.10665      -0.04844
 222    C 13  px     Ryd( 3p)     0.00402       1.13666
 223    C 13  px     Ryd( 4p)     0.00013       3.10281
 224    C 13  py     Val( 2p)     1.03927      -0.09675
 225    C 13  py     Ryd( 3p)     0.00203       0.69443
 226    C 13  py     Ryd( 4p)     0.00005       2.78987
 227    C 13  pz     Val( 2p)     1.07912      -0.02333
 228    C 13  pz     Ryd( 3p)     0.00407       0.97764
 229    C 13  pz     Ryd( 4p)     0.00015       3.22748
 230    C 13  dxy    Ryd( 3d)     0.00091       1.88196
 231    C 13  dxz    Ryd( 3d)     0.00112       2.12953
 232    C 13  dyz    Ryd( 3d)     0.00073       1.79764
 233    C 13  dx2y2  Ryd( 3d)     0.00072       1.73295
 234    C 13  dz2    Ryd( 3d)     0.00081       2.09169

 235    C 14  s      Cor( 1s)     1.99999     -10.18145
 236    C 14  s      Val( 2s)     0.93482      -0.07744
 237    C 14  s      Ryd( 3s)     0.00141       1.18604
 238    C 14  s      Ryd( 4s)     0.00001      22.36315
 239    C 14  px     Val( 2p)     1.04628      -0.03914
 240    C 14  px     Ryd( 3p)     0.00190       0.81005
 241    C 14  px     Ryd( 4p)     0.00016       3.17400
 242    C 14  py     Val( 2p)     1.01831      -0.08297
 243    C 14  py     Ryd( 3p)     0.00262       0.71482
 244    C 14  py     Ryd( 4p)     0.00006       2.89126
 245    C 14  pz     Val( 2p)     1.16044      -0.04642
 246    C 14  pz     Ryd( 3p)     0.00560       1.28388
 247    C 14  pz     Ryd( 4p)     0.00010       3.05489
 248    C 14  dxy    Ryd( 3d)     0.00078       2.02696
 249    C 14  dxz    Ryd( 3d)     0.00079       2.03499
 250    C 14  dyz    Ryd( 3d)     0.00060       1.75650
 251    C 14  dx2y2  Ryd( 3d)     0.00064       1.85233
 252    C 14  dz2    Ryd( 3d)     0.00148       1.96300

 253    C 15  s      Cor( 1s)     1.99999     -10.18145
 254    C 15  s      Val( 2s)     0.93482      -0.07744
 255    C 15  s      Ryd( 3s)     0.00141       1.18604
 256    C 15  s      Ryd( 4s)     0.00001      22.36315
 257    C 15  px     Val( 2p)     1.00894      -0.10648
 258    C 15  px     Ryd( 3p)     0.00225       0.66430
 259    C 15  px     Ryd( 4p)     0.00003       2.74334
 260    C 15  py     Val( 2p)     1.12187      -0.03391
 261    C 15  py     Ryd( 3p)     0.00332       1.12832
 262    C 15  py     Ryd( 4p)     0.00017       3.19184
 263    C 15  pz     Val( 2p)     1.09422      -0.02814
 264    C 15  pz     Ryd( 3p)     0.00455       1.01614
 265    C 15  pz     Ryd( 4p)     0.00013       3.18496
 266    C 15  dxy    Ryd( 3d)     0.00073       1.65254
 267    C 15  dxz    Ryd( 3d)     0.00054       1.68053
 268    C 15  dyz    Ryd( 3d)     0.00130       2.12272
 269    C 15  dx2y2  Ryd( 3d)     0.00083       2.03956
 270    C 15  dz2    Ryd( 3d)     0.00089       2.13842

 271    C 16  s      Cor( 1s)     1.99999     -10.18145
 272    C 16  s      Val( 2s)     0.93482      -0.07744
 273    C 16  s      Ryd( 3s)     0.00141       1.18604
 274    C 16  s      Ryd( 4s)     0.00001      22.36316
 275    C 16  px     Val( 2p)     1.00632      -0.10652
 276    C 16  px     Ryd( 3p)     0.00210       0.64444
 277    C 16  px     Ryd( 4p)     0.00003       2.74317
 278    C 16  py     Val( 2p)     1.06990      -0.01555
 279    C 16  py     Ryd( 3p)     0.00280       0.97838
 280    C 16  py     Ryd( 4p)     0.00020       3.32837
 281    C 16  pz     Val( 2p)     1.14881      -0.04646
 282    C 16  pz     Ryd( 3p)     0.00522       1.18593
 283    C 16  pz     Ryd( 4p)     0.00010       3.04860
 284    C 16  dxy    Ryd( 3d)     0.00063       1.72509
 285    C 16  dxz    Ryd( 3d)     0.00058       1.60714
 286    C 16  dyz    Ryd( 3d)     0.00106       2.21841
 287    C 16  dx2y2  Ryd( 3d)     0.00077       2.14848
 288    C 16  dz2    Ryd( 3d)     0.00125       1.93465

 289    C 17  s      Cor( 1s)     1.99999     -10.18145
 290    C 17  s      Val( 2s)     0.93482      -0.07744
 291    C 17  s      Ryd( 3s)     0.00141       1.18604
 292    C 17  s      Ryd( 4s)     0.00001      22.36315
 293    C 17  px     Val( 2p)     1.04148      -0.04563
 294    C 17  px     Ryd( 3p)     0.00180       0.78185
 295    C 17  px     Ryd( 4p)     0.00015       3.13234
 296    C 17  py     Val( 2p)     1.05163      -0.07677
 297    C 17  py     Ryd( 3p)     0.00331       0.90895
 298    C 17  py     Ryd( 4p)     0.00007       2.93411
 299    C 17  pz     Val( 2p)     1.13192      -0.04612
 300    C 17  pz     Ryd( 3p)     0.00500       1.11794
 301    C 17  pz     Ryd( 4p)     0.00009       3.05370
 302    C 17  dxy    Ryd( 3d)     0.00078       2.09111
 303    C 17  dxz    Ryd( 3d)     0.00076       1.97951
 304    C 17  dyz    Ryd( 3d)     0.00103       1.84830
 305    C 17  dx2y2  Ryd( 3d)     0.00067       1.77311
 306    C 17  dz2    Ryd( 3d)     0.00105       1.94174

 307    C 18  s      Cor( 1s)     1.99999     -10.18145
 308    C 18  s      Val( 2s)     0.93482      -0.07744
 309    C 18  s      Ryd( 3s)     0.00141       1.18604
 310    C 18  s      Ryd( 4s)     0.00001      22.36315
 311    C 18  px     Val( 2p)     1.11805      -0.05181
 312    C 18  px     Ryd( 3p)     0.00312       1.05115
 313    C 18  px     Ryd( 4p)     0.00013       3.06569
 314    C 18  py     Val( 2p)     1.02353      -0.09692
 315    C 18  py     Ryd( 3p)     0.00277       0.76292
 316    C 18  py     Ryd( 4p)     0.00004       2.80718
 317    C 18  pz     Val( 2p)     1.08346      -0.01979
 318    C 18  pz     Ryd( 3p)     0.00424       0.99467
 319    C 18  pz     Ryd( 4p)     0.00015       3.24729
 320    C 18  dxy    Ryd( 3d)     0.00088       1.80917
 321    C 18  dxz    Ryd( 3d)     0.00121       2.08817
 322    C 18  dyz    Ryd( 3d)     0.00060       1.77105
 323    C 18  dx2y2  Ryd( 3d)     0.00072       1.79103
 324    C 18  dz2    Ryd( 3d)     0.00088       2.17436

 325    C 19  s      Cor( 1s)     1.99999     -10.18145
 326    C 19  s      Val( 2s)     0.93482      -0.07744
 327    C 19  s      Ryd( 3s)     0.00141       1.18603
 328    C 19  s      Ryd( 4s)     0.00001      22.36317
 329    C 19  px     Val( 2p)     1.04995      -0.08459
 330    C 19  px     Ryd( 3p)     0.00335       0.89272
 331    C 19  px     Ryd( 4p)     0.00006       2.88000
 332    C 19  py     Val( 2p)     1.08967      -0.06375
 333    C 19  py     Ryd( 3p)     0.00246       0.91583
 334    C 19  py     Ryd( 4p)     0.00012       2.99697
 335    C 19  pz     Val( 2p)     1.08541      -0.02019
 336    C 19  pz     Ryd( 3p)     0.00431       1.00019
 337    C 19  pz     Ryd( 4p)     0.00015       3.24318
 338    C 19  dxy    Ryd( 3d)     0.00102       1.96051
 339    C 19  dxz    Ryd( 3d)     0.00080       1.84963
 340    C 19  dyz    Ryd( 3d)     0.00101       1.98870
 341    C 19  dx2y2  Ryd( 3d)     0.00057       1.64864
 342    C 19  dz2    Ryd( 3d)     0.00089       2.18629

 343    C 20  s      Cor( 1s)     1.99999     -10.19277
 344    C 20  s      Val( 2s)     0.85653      -0.03532
 345    C 20  s      Ryd( 3s)     0.00090       1.05308
 346    C 20  s      Ryd( 4s)     0.00001      22.41203
 347    C 20  px     Val( 2p)     1.00743      -0.09233
 348    C 20  px     Ryd( 3p)     0.00305       0.79145
 349    C 20  px     Ryd( 4p)     0.00004       2.94742
 350    C 20  py     Val( 2p)     1.07170      -0.02087
 351    C 20  py     Ryd( 3p)     0.00269       1.50040
 352    C 20  py     Ryd( 4p)     0.00016       3.53027
 353    C 20  pz     Val( 2p)     1.07557      -0.02781
 354    C 20  pz     Ryd( 3p)     0.00429       1.39405
 355    C 20  pz     Ryd( 4p)     0.00017       3.51602
 356    C 20  dxy    Ryd( 3d)     0.00065       1.89505
 357    C 20  dxz    Ryd( 3d)     0.00059       1.85709
 358    C 20  dyz    Ryd( 3d)     0.00079       2.23539
 359    C 20  dx2y2  Ryd( 3d)     0.00074       2.07117
 360    C 20  dz2    Ryd( 3d)     0.00079       2.28552

 361    C 21  s      Cor( 1s)     1.99999     -10.19277
 362    C 21  s      Val( 2s)     0.85653      -0.03532
 363    C 21  s      Ryd( 3s)     0.00090       1.05309
 364    C 21  s      Ryd( 4s)     0.00001      22.41203
 365    C 21  px     Val( 2p)     1.02874      -0.07867
 366    C 21  px     Ryd( 3p)     0.00198       0.86310
 367    C 21  px     Ryd( 4p)     0.00006       3.03314
 368    C 21  py     Val( 2p)     1.05161      -0.03960
 369    C 21  py     Ryd( 3p)     0.00443       1.43509
 370    C 21  py     Ryd( 4p)     0.00011       3.41760
 371    C 21  pz     Val( 2p)     1.07435      -0.02274
 372    C 21  pz     Ryd( 3p)     0.00363       1.38771
 373    C 21  pz     Ryd( 4p)     0.00018       3.54297
 374    C 21  dxy    Ryd( 3d)     0.00073       2.09409
 375    C 21  dxz    Ryd( 3d)     0.00065       1.95905
 376    C 21  dyz    Ryd( 3d)     0.00079       2.26102
 377    C 21  dx2y2  Ryd( 3d)     0.00062       1.81174
 378    C 21  dz2    Ryd( 3d)     0.00078       2.21831

 379    C 22  s      Cor( 1s)     1.99999     -10.19277
 380    C 22  s      Val( 2s)     0.85653      -0.03532
 381    C 22  s      Ryd( 3s)     0.00090       1.05309
 382    C 22  s      Ryd( 4s)     0.00001      22.41202
 383    C 22  px     Val( 2p)     1.05270      -0.03920
 384    C 22  px     Ryd( 3p)     0.00178       1.14406
 385    C 22  px     Ryd( 4p)     0.00014       3.34207
 386    C 22  py     Val( 2p)     1.02143      -0.08045
 387    C 22  py     Ryd( 3p)     0.00400       0.93100
 388    C 22  py     Ryd( 4p)     0.00005       3.05524
 389    C 22  pz     Val( 2p)     1.08057      -0.02137
 390    C 22  pz     Ryd( 3p)     0.00425       1.61085
 391    C 22  pz     Ryd( 4p)     0.00018       3.59640
 392    C 22  dxy    Ryd( 3d)     0.00070       2.07153
 393    C 22  dxz    Ryd( 3d)     0.00084       2.17400
 394    C 22  dyz    Ryd( 3d)     0.00063       1.94518
 395    C 22  dx2y2  Ryd( 3d)     0.00061       1.84035
 396    C 22  dz2    Ryd( 3d)     0.00078       2.31317

 397    C 23  s      Cor( 1s)     1.99999     -10.18145
 398    C 23  s      Val( 2s)     0.93482      -0.07744
 399    C 23  s      Ryd( 3s)     0.00141       1.18603
 400    C 23  s      Ryd( 4s)     0.00001      22.36317
 401    C 23  px     Val( 2p)     1.01442      -0.08341
 402    C 23  px     Ryd( 3p)     0.00156       0.64609
 403    C 23  px     Ryd( 4p)     0.00008       2.89069
 404    C 23  py     Val( 2p)     1.04660      -0.04039
 405    C 23  py     Ryd( 3p)     0.00305       0.89481
 406    C 23  py     Ryd( 4p)     0.00014       3.16930
 407    C 23  pz     Val( 2p)     1.16401      -0.04473
 408    C 23  pz     Ryd( 3p)     0.00550       1.26786
 409    C 23  pz     Ryd( 4p)     0.00010       3.06015
 410    C 23  dxy    Ryd( 3d)     0.00073       2.08992
 411    C 23  dxz    Ryd( 3d)     0.00052       1.71557
 412    C 23  dyz    Ryd( 3d)     0.00087       2.07614
 413    C 23  dx2y2  Ryd( 3d)     0.00066       1.77922
 414    C 23  dz2    Ryd( 3d)     0.00151       1.97292

 415    C 24  s      Cor( 1s)     1.99999     -10.19277
 416    C 24  s      Val( 2s)     0.85653      -0.03532
 417    C 24  s      Ryd( 3s)     0.00090       1.05309
 418    C 24  s      Ryd( 4s)     0.00001      22.41202
 419    C 24  px     Val( 2p)     1.03617      -0.06337
 420    C 24  px     Ryd( 3p)     0.00430       1.09371
 421    C 24  px     Ryd( 4p)     0.00008       3.20162
 422    C 24  py     Val( 2p)     1.03949      -0.05547
 423    C 24  py     Ryd( 3p)     0.00143       0.98658
 424    C 24  py     Ryd( 4p)     0.00011       3.20085
 425    C 24  pz     Val( 2p)     1.07904      -0.02217
 426    C 24  pz     Ryd( 3p)     0.00430       1.60561
 427    C 24  pz     Ryd( 4p)     0.00018       3.59124
 428    C 24  dxy    Ryd( 3d)     0.00071       2.13943
 429    C 24  dxz    Ryd( 3d)     0.00067       2.07197
 430    C 24  dyz    Ryd( 3d)     0.00078       2.03767
 431    C 24  dx2y2  Ryd( 3d)     0.00061       1.78074
 432    C 24  dz2    Ryd( 3d)     0.00079       2.31441

 433    C 25  s      Cor( 1s)     1.99999     -10.19277
 434    C 25  s      Val( 2s)     0.85653      -0.03532
 435    C 25  s      Ryd( 3s)     0.00090       1.05309
 436    C 25  s      Ryd( 4s)     0.00001      22.41202
 437    C 25  px     Val( 2p)     1.02568      -0.07028
 438    C 25  px     Ryd( 3p)     0.00414       1.11161
 439    C 25  px     Ryd( 4p)     0.00007       3.16020
 440    C 25  py     Val( 2p)     1.05782      -0.03317
 441    C 25  py     Ryd( 3p)     0.00186       1.22264
 442    C 25  py     Ryd( 4p)     0.00014       3.39297
 443    C 25  pz     Val( 2p)     1.07119      -0.03757
 444    C 25  pz     Ryd( 3p)     0.00404       1.35164
 445    C 25  pz     Ryd( 4p)     0.00015       3.44052
 446    C 25  dxy    Ryd( 3d)     0.00069       2.00759
 447    C 25  dxz    Ryd( 3d)     0.00068       2.09186
 448    C 25  dyz    Ryd( 3d)     0.00084       2.18982
 449    C 25  dx2y2  Ryd( 3d)     0.00068       1.99199
 450    C 25  dz2    Ryd( 3d)     0.00067       2.06298

 451    C 26  s      Cor( 1s)     1.99999     -10.18145
 452    C 26  s      Val( 2s)     0.93482      -0.07744
 453    C 26  s      Ryd( 3s)     0.00141       1.18605
 454    C 26  s      Ryd( 4s)     0.00001      22.36315
 455    C 26  px     Val( 2p)     1.02719      -0.06949
 456    C 26  px     Ryd( 3p)     0.00286       0.76096
 457    C 26  px     Ryd( 4p)     0.00008       2.97322
 458    C 26  py     Val( 2p)     1.11217      -0.04453
 459    C 26  py     Ryd( 3p)     0.00292       1.04753
 460    C 26  py     Ryd( 4p)     0.00015       3.12112
 461    C 26  pz     Val( 2p)     1.08568      -0.05450
 462    C 26  pz     Ryd( 3p)     0.00433       1.00027
 463    C 26  pz     Ryd( 4p)     0.00009       3.02580
 464    C 26  dxy    Ryd( 3d)     0.00078       1.93351
 465    C 26  dxz    Ryd( 3d)     0.00073       2.00205
 466    C 26  dyz    Ryd( 3d)     0.00128       1.92020
 467    C 26  dx2y2  Ryd( 3d)     0.00089       1.96321
[...]
  653. RY (12) C 30             0.00000     5.31545
  654. RY (13) C 30             0.00000    18.48376
  655. RY ( 1) C 31             0.00467     1.49680
  656. RY ( 2) C 31             0.00433     1.59946
  657. RY ( 3) C 31             0.00133     0.98181
  658. RY ( 4) C 31             0.00071     1.10281
  659. RY ( 5) C 31             0.00061     1.72093
  660. RY ( 6) C 31             0.00049     1.65243
  661. RY ( 7) C 31             0.00018     3.56143
  662. RY ( 8) C 31             0.00017     3.59753
  663. RY ( 9) C 31             0.00006     3.20633
  664. RY (10) C 31             0.00004     2.41957
  665. RY (11) C 31             0.00002     2.34682
  666. RY (12) C 31             0.00000     5.31752
  667. RY (13) C 31             0.00000    18.48190
  668. RY ( 1) C 32             0.00478     1.22603
  669. RY ( 2) C 32             0.00241     0.93320
  670. RY ( 3) C 32             0.00094     1.14483
  671. RY ( 4) C 32             0.00060     1.35885
  672. RY ( 5) C 32             0.00039     1.71428
  673. RY ( 6) C 32             0.00013     3.07517
  674. RY ( 7) C 32             0.00010     2.46583
  675. RY ( 8) C 32             0.00004     2.13227
  676. RY ( 9) C 32             0.00003     2.08992
  677. RY (10) C 32             0.00001     2.39936
  678. RY (11) C 32             0.00000     2.65859
  679. RY (12) C 32             0.00000     4.13486
  680. RY (13) C 32             0.00000    19.76536
  681. RY ( 1) C 33             0.00478     1.22603
  682. RY ( 2) C 33             0.00241     0.93320
  683. RY ( 3) C 33             0.00094     1.14487
  684. RY ( 4) C 33             0.00060     1.35885
  685. RY ( 5) C 33             0.00039     1.71430
  686. RY ( 6) C 33             0.00013     3.07516
  687. RY ( 7) C 33             0.00010     2.46575
  688. RY ( 8) C 33             0.00004     2.13303
  689. RY ( 9) C 33             0.00003     2.08920
  690. RY (10) C 33             0.00001     2.39941
  691. RY (11) C 33             0.00000     2.65842
  692. RY (12) C 33             0.00000     4.13539
  693. RY (13) C 33             0.00000    19.76496
  694. RY ( 1) C 34             0.00467     1.49682
  695. RY ( 2) C 34             0.00433     1.59941
  696. RY ( 3) C 34             0.00133     0.98177
  697. RY ( 4) C 34             0.00071     1.10287
  698. RY ( 5) C 34             0.00061     1.72099
  699. RY ( 6) C 34             0.00049     1.65233
  700. RY ( 7) C 34             0.00018     3.56140
  701. RY ( 8) C 34             0.00017     3.59754
  702. RY ( 9) C 34             0.00006     3.20635
  703. RY (10) C 34             0.00004     2.41959
  704. RY (11) C 34             0.00002     2.34678
  705. RY (12) C 34             0.00000     5.31810
  706. RY (13) C 34             0.00000    18.48137
  707. RY ( 1) C 35             0.00467     1.49699
  708. RY ( 2) C 35             0.00433     1.59932
  709. RY ( 3) C 35             0.00133     0.98178
  710. RY ( 4) C 35             0.00071     1.10278
  711. RY ( 5) C 35             0.00061     1.72091
  712. RY ( 6) C 35             0.00049     1.65246
  713. RY ( 7) C 35             0.00018     3.56139
  714. RY ( 8) C 35             0.00017     3.59758
  715. RY ( 9) C 35             0.00006     3.20629
  716. RY (10) C 35             0.00004     2.41978
  717. RY (11) C 35             0.00002     2.34694
  718. RY (12) C 35             0.00000     5.31186
  719. RY (13) C 35             0.00000    18.48727
  720. RY ( 1) C 36             0.00467     1.49700
  721. RY ( 2) C 36             0.00433     1.59931
  722. RY ( 3) C 36             0.00133     0.98176
  723. RY ( 4) C 36             0.00071     1.10281
  724. RY ( 5) C 36             0.00061     1.72089
  725. RY ( 6) C 36             0.00049     1.65247
  726. RY ( 7) C 36             0.00018     3.56139
  727. RY ( 8) C 36             0.00017     3.59758
  728. RY ( 9) C 36             0.00006     3.20612
  729. RY (10) C 36             0.00004     2.41972
  730. RY (11) C 36             0.00002     2.34689
  731. RY (12) C 36             0.00000     5.31230
  732. RY (13) C 36             0.00000    18.48711
  733. RY ( 1) C 37             0.00467     1.49681
  734. RY ( 2) C 37             0.00433     1.59943
  735. RY ( 3) C 37             0.00133     0.98177
  736. RY ( 4) C 37             0.00071     1.10283
  737. RY ( 5) C 37             0.00061     1.72095
  738. RY ( 6) C 37             0.00049     1.65241
  739. RY ( 7) C 37             0.00018     3.56141
  740. RY ( 8) C 37             0.00017     3.59755
  741. RY ( 9) C 37             0.00006     3.20628
  742. RY (10) C 37             0.00004     2.41958
  743. RY (11) C 37             0.00002     2.34695
  744. RY (12) C 37             0.00000     5.31855
  745. RY (13) C 37             0.00000    18.48081
  746. RY ( 1) C 38             0.00478     1.22606
  747. RY ( 2) C 38             0.00241     0.93313
  748. RY ( 3) C 38             0.00094     1.14477
  749. RY ( 4) C 38             0.00060     1.35885
  750. RY ( 5) C 38             0.00039     1.71437
  751. RY ( 6) C 38             0.00013     3.07515
  752. RY ( 7) C 38             0.00010     2.46599
  753. RY ( 8) C 38             0.00004     2.13338
  754. RY ( 9) C 38             0.00003     2.08878
  755. RY (10) C 38             0.00001     2.39948
  756. RY (11) C 38             0.00000     2.65827
  757. RY (12) C 38             0.00000     4.13295
  758. RY (13) C 38             0.00000    19.76740
  759. RY ( 1) C 39             0.00478     1.22606
  760. RY ( 2) C 39             0.00241     0.93313
  761. RY ( 3) C 39             0.00094     1.14479
  762. RY ( 4) C 39             0.00060     1.35886
  763. RY ( 5) C 39             0.00039     1.71437
  764. RY ( 6) C 39             0.00013     3.07511
  765. RY ( 7) C 39             0.00010     2.46590
  766. RY ( 8) C 39             0.00004     2.13492
  767. RY ( 9) C 39             0.00003     2.08730
  768. RY (10) C 39             0.00001     2.39944
  769. RY (11) C 39             0.00000     2.65827
  770. RY (12) C 39             0.00000     4.13461
  771. RY (13) C 39             0.00000    19.76580
  772. RY ( 1) C 40             0.00467     1.49687
  773. RY ( 2) C 40             0.00433     1.59936
  774. RY ( 3) C 40             0.00133     0.98178
  775. RY ( 4) C 40             0.00071     1.10280
  776. RY ( 5) C 40             0.00061     1.72105
  777. RY ( 6) C 40             0.00049     1.65234
  778. RY ( 7) C 40             0.00018     3.56138
  779. RY ( 8) C 40             0.00017     3.59758
  780. RY ( 9) C 40             0.00006     3.20635
  781. RY (10) C 40             0.00004     2.41966
  782. RY (11) C 40             0.00002     2.34695
  783. RY (12) C 40             0.00000     5.31664
  784. RY (13) C 40             0.00000    18.48259
  785. RY ( 1) C 41             0.00467     1.49681
  786. RY ( 2) C 41             0.00433     1.59942
  787. RY ( 3) C 41             0.00133     0.98181
  788. RY ( 4) C 41             0.00071     1.10277
  789. RY ( 5) C 41             0.00061     1.72100
  790. RY ( 6) C 41             0.00049     1.65241
  791. RY ( 7) C 41             0.00018     3.56140
  792. RY ( 8) C 41             0.00017     3.59755
  793. RY ( 9) C 41             0.00006     3.20651
  794. RY (10) C 41             0.00004     2.41959
  795. RY (11) C 41             0.00002     2.34691
  796. RY (12) C 41             0.00000     5.31360
  797. RY (13) C 41             0.00000    18.48556
  798. RY ( 1) C 42             0.00467     1.49671
  799. RY ( 2) C 42             0.00433     1.59952
  800. RY ( 3) C 42             0.00133     0.98184
  801. RY ( 4) C 42             0.00071     1.10276
  802. RY ( 5) C 42             0.00061     1.72093
  803. RY ( 6) C 42             0.00049     1.65248
  804. RY ( 7) C 42             0.00018     3.56141
  805. RY ( 8) C 42             0.00017     3.59755
  806. RY ( 9) C 42             0.00006     3.20627
  807. RY (10) C 42             0.00004     2.41956
  808. RY (11) C 42             0.00002     2.34685
  809. RY (12) C 42             0.00000     5.31703
  810. RY (13) C 42             0.00000    18.48243
  811. RY ( 1) C 43             0.00478     1.22604
  812. RY ( 2) C 43             0.00241     0.93316
  813. RY ( 3) C 43             0.00094     1.14477
  814. RY ( 4) C 43             0.00060     1.35884
  815. RY ( 5) C 43             0.00039     1.71442
  816. RY ( 6) C 43             0.00013     3.07509
  817. RY ( 7) C 43             0.00010     2.46588
  818. RY ( 8) C 43             0.00004     2.13445
  819. RY ( 9) C 43             0.00003     2.08774
  820. RY (10) C 43             0.00001     2.39942
  821. RY (11) C 43             0.00000     2.65814
  822. RY (12) C 43             0.00000     4.13499
  823. RY (13) C 43             0.00000    19.76564
  824. RY ( 1) C 44             0.00467     1.49695
  825. RY ( 2) C 44             0.00433     1.59933
  826. RY ( 3) C 44             0.00133     0.98183
  827. RY ( 4) C 44             0.00071     1.10273
  828. RY ( 5) C 44             0.00061     1.72103
  829. RY ( 6) C 44             0.00049     1.65237
  830. RY ( 7) C 44             0.00018     3.56142
  831. RY ( 8) C 44             0.00017     3.59755
  832. RY ( 9) C 44             0.00006     3.20624
  833. RY (10) C 44             0.00004     2.41963
  834. RY (11) C 44             0.00002     2.34687
  835. RY (12) C 44             0.00000     5.31667
  836. RY (13) C 44             0.00000    18.48274
  837. RY ( 1) C 45             0.00467     1.49687
  838. RY ( 2) C 45             0.00433     1.59937
  839. RY ( 3) C 45             0.00133     0.98181
  840. RY ( 4) C 45             0.00071     1.10270
  841. RY ( 5) C 45             0.00061     1.72106
  842. RY ( 6) C 45             0.00049     1.65241
  843. RY ( 7) C 45             0.00018     3.56138
  844. RY ( 8) C 45             0.00017     3.59756
  845. RY ( 9) C 45             0.00006     3.20636
  846. RY (10) C 45             0.00004     2.41966
  847. RY (11) C 45             0.00002     2.34694
  848. RY (12) C 45             0.00000     5.31489
  849. RY (13) C 45             0.00000    18.48432
  850. RY ( 1) C 46             0.00467     1.49681
  851. RY ( 2) C 46             0.00433     1.59946
  852. RY ( 3) C 46             0.00133     0.98181
  853. RY ( 4) C 46             0.00071     1.10278
  854. RY ( 5) C 46             0.00061     1.72096
  855. RY ( 6) C 46             0.00049     1.65242
  856. RY ( 7) C 46             0.00018     3.56142
  857. RY ( 8) C 46             0.00017     3.59757
  858. RY ( 9) C 46             0.00006     3.20622
  859. RY (10) C 46             0.00004     2.41963
  860. RY (11) C 46             0.00002     2.34691
  861. RY (12) C 46             0.00000     5.31648
  862. RY (13) C 46             0.00000    18.48287
  863. RY ( 1) C 47             0.00478     1.22604
  864. RY ( 2) C 47             0.00241     0.93314
  865. RY ( 3) C 47             0.00094     1.14478
  866. RY ( 4) C 47             0.00060     1.35884
  867. RY ( 5) C 47             0.00039     1.71438
  868. RY ( 6) C 47             0.00013     3.07508
  869. RY ( 7) C 47             0.00010     2.46598
  870. RY ( 8) C 47             0.00004     2.13362
  871. RY ( 9) C 47             0.00003     2.08856
  872. RY (10) C 47             0.00001     2.39942
  873. RY (11) C 47             0.00000     2.65813
  874. RY (12) C 47             0.00000     4.13433
  875. RY (13) C 47             0.00000    19.76628
  876. RY ( 1) C 48             0.00467     1.49689
  877. RY ( 2) C 48             0.00433     1.59934
  878. RY ( 3) C 48             0.00133     0.98180
  879. RY ( 4) C 48             0.00071     1.10277
  880. RY ( 5) C 48             0.00061     1.72099
  881. RY ( 6) C 48             0.00049     1.65243
  882. RY ( 7) C 48             0.00018     3.56139
  883. RY ( 8) C 48             0.00017     3.59755
  884. RY ( 9) C 48             0.00006     3.20634
  885. RY (10) C 48             0.00004     2.41963
  886. RY (11) C 48             0.00002     2.34692
  887. RY (12) C 48             0.00000     5.31644
  888. RY (13) C 48             0.00000    18.48283
  889. RY ( 1) H 49             0.00158     0.44271
  890. RY ( 2) H 49             0.00015     2.28547
  891. RY ( 1) H 50             0.00158     0.44271
  892. RY ( 2) H 50             0.00015     2.28547
  893. RY ( 1) H 51             0.00158     0.44271
  894. RY ( 2) H 51             0.00015     2.28547
  895. RY ( 1) H 52             0.00158     0.44271
  896. RY ( 2) H 52             0.00015     2.28547
  897. RY ( 1) H 53             0.00158     0.44272
  898. RY ( 2) H 53             0.00015     2.28548
  899. RY ( 1) H 54             0.00158     0.44271
  900. RY ( 2) H 54             0.00015     2.28547
  901. RY ( 1) H 55             0.00158     0.44271
  902. RY ( 2) H 55             0.00015     2.28547
  903. RY ( 1) H 56             0.00158     0.44271
  904. RY ( 2) H 56             0.00015     2.28547
  905. RY ( 1) H 57             0.00158     0.44271
  906. RY ( 2) H 57             0.00015     2.28547
  907. RY ( 1) H 58             0.00158     0.44271
  908. RY ( 2) H 58             0.00015     2.28547
  909. RY ( 1) H 59             0.00158     0.44271
  910. RY ( 2) H 59             0.00015     2.28547
  911. RY ( 1) H 60             0.00158     0.44271
  912. RY ( 2) H 60             0.00015     2.28547
  913. RY ( 1) H 61             0.00158     0.44271
  914. RY ( 2) H 61             0.00015     2.28547
  915. RY ( 1) H 62             0.00158     0.44271
  916. RY ( 2) H 62             0.00015     2.28547
  917. RY ( 1) H 63             0.00158     0.44271
  918. RY ( 2) H 63             0.00015     2.28547
  919. RY ( 1) H 64             0.00158     0.44271
  920. RY ( 2) H 64             0.00015     2.28547
  921. RY ( 1) H 65             0.00158     0.44271
  922. RY ( 2) H 65             0.00015     2.28547
  923. RY ( 1) H 66             0.00158     0.44271
  924. RY ( 2) H 66             0.00015     2.28547
  925. RY ( 1) H 67             0.00158     0.44271
  926. RY ( 2) H 67             0.00015     2.28547
  927. RY ( 1) H 68             0.00158     0.44271
  928. RY ( 2) H 68             0.00015     2.28547
  929. RY ( 1) H 69             0.00158     0.44271
  930. RY ( 2) H 69             0.00015     2.28547
  931. RY ( 1) H 70             0.00158     0.44271
  932. RY ( 2) H 70             0.00015     2.28547
  933. RY ( 1) H 71             0.00158     0.44271
  934. RY ( 2) H 71             0.00015     2.28547
  935. RY ( 1) H 72             0.00158     0.44271
  936. RY ( 2) H 72             0.00015     2.28547
          -------------------------------
                 Total Lewis  302.33384  ( 96.9019%)
           Valence non-Lewis    9.09519  (  2.9151%)
           Rydberg non-Lewis    0.57096  (  0.1830%)
          -------------------------------
               Total unit  1  312.00000  (100.0000%)
              Charge unit  1    0.00000

 $CHOOSE
   BOND S 1 6 D 1 17 S 1 49 S 2 3 D 2 18 S 2 50 S 3 6 D 3 7 D 4 5 S 4 7 S 4 51
        S 5 8 S 5 52 D 6 8 S 7 22 S 8 29 D 9 10 S 9 45 S 9 53 S 10 21 S 10 54
        D 11 12 S 11 48 S 11 55 S 12 40 S 12 56 D 13 14 S 13 37 S 13 57 S 14 34
        S 14 58 D 15 16 S 15 31 S 15 59 S 16 28 S 16 60 S 17 25 S 17 61 S 18 24
        S 18 62 S 19 22 D 19 23 S 19 64 D 20 21 S 20 23 S 20 44 S 21 24 D 22 24
        S 23 63 S 25 28 D 25 29 D 26 27 S 26 29 S 26 65 S 27 30 S 27 66 D 28 30
        S 30 35 S 31 34 D 31 35 D 32 33 S 32 35 S 32 67 S 33 36 S 33 68 D 34 36
        S 36 41 S 37 40 D 37 41 D 38 39 S 38 41 S 38 69 S 39 42 S 39 70 D 40 42
        S 42 46 S 43 46 D 43 47 S 43 72 D 44 45 S 44 47 S 45 48 D 46 48 S 47 71
        END
 $END

 NBO analysis completed in 40.80 CPU seconds (41 wall seconds)
 Maximum scratch memory used by NBO was 7886952 words (60.17 MB)
 Maximum scratch memory used by G16NBO was 1330364 words (10.15 MB)

 Opening RunExU unformatted file "/tmp/6_6_armCNB_sgp-915.tmp/Gau-73327.EUF"
 Read unf file /tmp/6_6_armCNB_sgp-915.tmp/Gau-73327.EUF:
 Label Gaussian matrix elements                                         IVers= 1 NLab= 2 Version=ES64L-G16RevB.01
 Title From ../..//6_6_armCNB_opt.out                                  
 NAtoms=    72 NBasis=   936 NBsUse=   936 ICharg=     0 Multip=     1 NE=   312 Len12L=8 Len4L=8 IOpCl= 0 ICGU= -1
 GAUSSIAN SCALARS                    NI= 1 NR= 1 NTot=       1 LenBuf=    2 NRI=1 N=    1000
 NPA CHARGES                         NI= 0 NR= 1 NTot=      72 LenBuf= 2048 NRI=1 N=      72
 Recovered energy= -1843.89849861     dipole=     -0.000037638699      0.000020397129      0.000022626200
 1\1\GINC-CU24\SP\RB3LYP\6-311G(d)\C48H24\WANG\17-May-2025\0\\# B3LYP/6
 -311G* Pop=(NBO6,Hirshfeld) NOSYMM\\From ../..//6_6_armCNB_opt.out\\0,
 1\C,0,-0.86919,3.088708,3.255606\C,0,1.884911,3.491567,2.269504\C,0,0.
 743973,3.848695,1.480218\C,0,-0.169699,4.517827,-0.674547\C,0,-1.44435
 8,4.331375,-0.218157\C,0,-0.607729,3.650974,1.964193\C,0,0.953728,4.07
 8934,0.098457\C,0,-1.682202,3.693361,1.042248\C,0,4.536851,-0.555228,0
 .057281\C,0,4.486126,0.752828,0.45\C,0,3.254716,-3.204271,-0.184517\C,
 0,2.176191,-4.019771,0.014368\C,0,-0.577909,-4.42263,1.00047\C,0,-1.70
 7159,-3.930074,1.592074\C,0,-3.179124,-1.683891,2.819974\C,0,-3.229849
 ,-0.375835,3.212693\C,0,-1.947715,2.273208,3.454491\C,0,3.01416,2.9990
 11,1.677899\C,0,2.270221,3.453584,-1.952801\C,0,3.56004,1.406802,-1.70
 412\C,0,3.801639,1.727697,-0.345838\C,0,2.151232,3.556608,-0.528905\C,
 0,2.95148,2.414,-2.521101\C,0,3.079204,2.830115,0.25681\C,0,-2.838063,
 1.964561,2.375479\C,0,-3.77468,2.569359,0.211567\C,0,-4.36808,1.343323
 ,0.099657\C,0,-3.46733,0.664421,2.256805\C,0,-2.825914,2.82857,1.25315
 4\C,0,-4.053036,0.293191,1.021731\C,0,-3.362433,-2.040572,1.444682\C,0
 ,-4.258481,-1.482936,-0.748873\C,0,-3.577223,-2.52252,-1.317173\C,0,-2
 .639998,-3.14299,0.842034\C,0,-3.999246,-1.093926,0.605276\C,0,-2.5904
 37,-3.243733,-0.569939\C,0,-0.304767,-4.16157,-0.381374\C,0,-1.137302,
 -3.586764,-2.595427\C,0,0.137357,-3.400312,-3.051817\C,0,1.046934,-3.9
 63849,-0.865349\C,0,-1.392934,-3.766059,-1.197301\C,0,1.242996,-3.3804
 86,-2.141092\C,0,2.467678,-1.638296,-3.481541\C,0,3.613831,0.019684,-2
 .120575\C,0,3.906535,-0.977296,-1.157961\C,0,2.386709,-2.515695,-2.351
 998\C,0,3.061079,-0.41226,-3.369631\C,0,3.277268,-2.277436,-1.276635\H
 ,0,-0.147511,3.210587,4.056658\H,0,1.819024,3.498244,3.352543\H,0,-0.0
 2165,4.89482,-1.681184\H,0,-2.276861,4.564936,-0.873708\H,0,4.957754,-
 1.291381,0.734244\H,0,4.868008,1.022919,1.429069\H,0,4.04226,-3.1829,0
 .561591\H,0,2.134062,-4.625738,0.913473\H,0,0.167527,-4.913395,1.61758
 8\H,0,-1.830417,-4.041932,2.664294\H,0,-2.881458,-2.43807,3.541062\H,0
 ,-2.971203,-0.12377,4.235887\H,0,-2.055709,1.76775,4.40854\H,0,3.81696
 7,2.626782,2.305837\H,0,2.925877,2.295607,-3.59938\H,0,1.720549,4.1349
 08,-2.593907\H,0,-3.940802,3.306788,-0.566869\H,0,-4.990686,1.137603,-
 0.764867\H,0,-4.912428,-0.880456,-1.370751\H,0,-3.7071,-2.719757,-2.37
 6224\H,0,-1.964901,-3.479669,-3.288947\H,0,0.290311,-3.149785,-4.09642
 3\H,0,3.004135,0.277547,-4.205264\H,0,1.954251,-1.891637,-4.403262\\Ve
 rsion=ES64L-G16RevB.01\HF=-1843.8984986\RMSD=3.402e-09\Dipole=-0.00003
 76,0.0000204,0.0000226\Quadrupole=-8.2548253,-10.8133406,19.0681659,-3
 .7007012,12.9972099,-9.2589285\PG=C01 [X(C48H24)]\\@


 WERE I TO AWAIT PERFECTION, MY BOOK WOULD NEVER BE FINISHED.
                                    -- HISTORY OF CHINESE WRITING

                                       TAI T'UNG, 13TH CENTURY
 Job cpu time:       0 days  0 hours 48 minutes 53.5 seconds.
 Elapsed time:       0 days  0 hours  2 minutes 46.6 seconds.
 File lengths (MBytes):  RWF=    476 Int=      0 D2E=      0 Chk=     52 Scr=      1
 Normal termination of Gaussian 16 at Sat May 17 20:24:13 2025.
