 Entering Gaussian System, Link 0=g16
 Initial command:
 /opt/software/g16/l1.exe "/tmp/10_10-CNB-5603.tmp/Gau-60245.inp" -scrdir="/tmp/10_10-CNB-5603.tmp/"
 Entering Link 1 = /opt/software/g16/l1.exe PID=     60246.
  
 Copyright (c) 1988-2017, Gaussian, Inc.  All Rights Reserved.
  
 This is part of the Gaussian(R) 16 program.  It is based on
 the Gaussian(R) 09 system (copyright 2009, Gaussian, Inc.),
 the Gaussian(R) 03 system (copyright 2003, Gaussian, Inc.),
 the Gaussian(R) 98 system (copyright 1998, Gaussian, Inc.),
 the Gaussian(R) 94 system (copyright 1995, Gaussian, Inc.),
 the Gaussian 92(TM) system (copyright 1992, Gaussian, Inc.),
 the Gaussian 90(TM) system (copyright 1990, Gaussian, Inc.),
 the Gaussian 88(TM) system (copyright 1988, Gaussian, Inc.),
 the Gaussian 86(TM) system (copyright 1986, Carnegie Mellon
 University), and the Gaussian 82(TM) system (copyright 1983,
 Carnegie Mellon University). Gaussian is a federally registered
 trademark of Gaussian, Inc.
  
 This software contains proprietary and confidential information,
 including trade secrets, belonging to Gaussian, Inc.
  
 This software is provided under written license and may be
 used, copied, transmitted, or stored only in accord with that
 written license.
  
 The following legend is applicable only to US Government
 contracts under FAR:
  
                    RESTRICTED RIGHTS LEGEND
  
 Use, reproduction and disclosure by the US Government is
 subject to restrictions as set forth in subparagraphs (a)
 and (c) of the Commercial Computer Software - Restricted
 Rights clause in FAR 52.227-19.
  
 Gaussian, Inc.
 340 Quinnipiac St., Bldg. 40, Wallingford CT 06492
  
  
 ---------------------------------------------------------------
 Warning -- This program may not be used in any manner that
 competes with the business of Gaussian, Inc. or will provide
 assistance to any competitor of Gaussian, Inc.  The licensee
 of this program is prohibited from giving any competitor of
 Gaussian, Inc. access to this program.  By using this program,
 the user acknowledges that Gaussian, Inc. is engaged in the
 business of creating and licensing software in the field of
 computational chemistry and represents and warrants to the
 licensee that it is not a competitor of Gaussian, Inc. and that
 it will not use this program in any manner prohibited above.
 ---------------------------------------------------------------
  

 Cite this work as:
 Gaussian 16, Revision B.01,
 M. J. Frisch, G. W. Trucks, H. B. Schlegel, G. E. Scuseria, 
 M. A. Robb, J. R. Cheeseman, G. Scalmani, V. Barone, 
 G. A. Petersson, H. Nakatsuji, X. Li, M. Caricato, A. V. Marenich, 
 J. Bloino, B. G. Janesko, R. Gomperts, B. Mennucci, H. P. Hratchian, 
 J. V. Ortiz, A. F. Izmaylov, J. L. Sonnenberg, D. Williams-Young, 
 F. Ding, F. Lipparini, F. Egidi, J. Goings, B. Peng, A. Petrone, 
 T. Henderson, D. Ranasinghe, V. G. Zakrzewski, J. Gao, N. Rega, 
 G. Zheng, W. Liang, M. Hada, M. Ehara, K. Toyota, R. Fukuda, 
 J. Hasegawa, M. Ishida, T. Nakajima, Y. Honda, O. Kitao, H. Nakai, 
 T. Vreven, K. Throssell, J. A. Montgomery, Jr., J. E. Peralta, 
 F. Ogliaro, M. J. Bearpark, J. J. Heyd, E. N. Brothers, K. N. Kudin, 
 V. N. Staroverov, T. A. Keith, R. Kobayashi, J. Normand, 
 K. Raghavachari, A. P. Rendell, J. C. Burant, S. S. Iyengar, 
 J. Tomasi, M. Cossi, J. M. Millam, M. Klene, C. Adamo, R. Cammi, 
 J. W. Ochterski, R. L. Martin, K. Morokuma, O. Farkas, 
 J. B. Foresman, and D. J. Fox, Gaussian, Inc., Wallingford CT, 2016.
 
 ******************************************
 Gaussian 16:  ES64L-G16RevB.01 20-Dec-2017
                27-Apr-2025 
 ******************************************
 %nproc=18
 Will use up to   18 processors via shared memory.
 ----------------------
 # B3LYP/6-311G* NOSYMM
 ----------------------
 1/38=1,172=1/1;
 2/12=2,15=1,17=6,18=5,40=1/2;
 3/5=4,6=6,7=1,11=2,25=1,30=1,74=-5/1,2,3;
 4//1;
 5/5=2,38=5/2;
 6/7=2,8=2,9=2,10=2,28=1/1;
 99/5=1,9=1/99;
 ----------------------
 From 10_10-CNB_opt.out
 ----------------------
 Symbolic Z-matrix:
 Charge =  0 Multiplicity = 1
 6                     6.73685  -1.51741  -1.22189 
 6                     6.86066  -0.83222   0.02998 
 6                     6.91815   0.57779  -2.45047 
 6                     6.89852  -0.77873  -2.45049 
 6                     6.778     1.32084  -1.22188 
 6                     6.88194   0.63235   0.03 
 6                     6.77827   1.40023   1.1955 
 6                     6.38722   2.6662   -1.24475 
 6                     6.03934   3.35864  -0.07927 
 6                     6.34179   2.73147   1.17262 
 6                     6.03793   3.42381   2.40125 
 6                     5.25626   4.53263   2.40122 
 6                     5.19542   4.55581  -0.07931 
 6                     4.70639   5.0515    1.17257 
 6                     3.59955   5.91032   1.19542 
 6                     4.66025   5.11618  -1.24481 
 6                     3.52468   5.93666  -1.22195 
 6                     2.91132   6.26632   0.02991 
 6                     1.58786   6.75598  -2.45056 
 6                     2.87196   6.31826  -2.45058 
 6                     0.83798   6.85264  -1.22193 
 6                     1.52496   6.73904   0.02994 
 6                     0.76268   6.87792   1.19546 
 6                    -0.56227   6.89689  -1.24476 
 6                    -1.32827   6.78049  -0.07921 
 6                    -0.63828   6.8743    1.17263 
 6                    -1.39063   6.79959   2.40128 
 6                    -2.68684   6.39916   2.40134 
 6                    -2.72779   6.34827  -0.07914 
 6                    -3.3504    6.03655   1.17275 
 6                    -4.50931   5.24941   1.19566 
 6                    -3.42619   6.01255  -1.24461 
 6                    -4.55754   5.18629  -1.22171 
 6                    -5.06068   4.70494   0.03016 
 6                    -5.93578   3.59798  -2.45041 
 6                    -5.1223    4.68368  -2.45037 
 6                    -6.25961   2.91474  -1.22179 
 6                    -5.93913   3.53286   0.03013 
 6                    -6.30715   2.85086   1.19558 
 6                    -6.73456   1.59676  -1.2447 
 6                    -6.86066   0.83222  -0.07921 
 6                    -6.73686   1.51741   1.17266 
 6                    -6.89852   0.77873   2.40125 
 6                    -6.91814  -0.57779   2.40124 
 6                    -6.88194  -0.63235  -0.07923 
 6                    -6.778    -1.32084   1.17264 
 6                    -6.38722  -2.6662    1.19552 
 6                    -6.77826  -1.40023  -1.24473 
 6                    -6.34179  -2.73147  -1.22185 
 6                    -6.03934  -3.35864   0.03004 
 6                    -5.25627  -4.53263  -2.45045 
 6                    -6.03793  -3.42381  -2.45048 
 6                    -4.7064   -5.05151  -1.2218 
 6                    -5.19542  -4.55582   0.03008 
 6                    -4.66026  -5.11619   1.19557 
 6                    -3.59956  -5.91032  -1.24465 
 6                    -2.91133  -6.26631  -0.07915 
 6                    -3.52469  -5.93667   1.17272 
 6                    -2.87196  -6.31826   2.40135 
 6                    -1.58786  -6.75598   2.40133 
 6                    -1.52497  -6.73904  -0.07917 
 6                    -0.83799  -6.85263   1.1727 
 6                     0.56227  -6.89689   1.19552 
 6                    -0.76268  -6.87791  -1.24469 
 6                     0.63828  -6.8743   -1.22186 
 6                     1.32827  -6.78049   0.02998 
 6                     2.68684  -6.39916  -2.45058 
 6                     1.39063  -6.79959  -2.45051 
 6                     3.3504   -6.03656  -1.22199 
 6                     2.72779  -6.34827   0.02991 
 6                     3.4262   -6.01256   1.19537 
 6                     4.50931  -5.24941  -1.24489 
 6                     5.06068  -4.70494  -0.0794 
 6                     4.55754  -5.18629   1.17248 
 6                     5.1223   -4.68368   2.40114 
 6                     5.93577  -3.59798   2.40117 
 6                     5.93912  -3.53285  -0.07936 
 6                     6.25961  -2.91473   1.17255 
 6                     6.73456  -1.59676   1.19547 
 6                     6.30714  -2.85085  -1.24481 
 1                     6.95949   1.13062  -3.38588 
 1                     6.92387  -1.33251  -3.38591 
 1                     6.90962   0.93511   2.16797 
 1                     6.23344   3.12437  -2.21723 
 1                     6.38378   2.99057   3.33667 
 1                     4.96441   5.00398   3.33662 
 1                     3.20568   6.19041   2.16789 
 1                     5.03999   4.81722  -2.21728 
 1                     1.07472   6.96581  -3.38598 
 1                     3.4064    6.17103  -3.38601 
 1                     1.24566   6.85926   2.16791 
 1                    -1.0456    6.89197  -2.2172 
 1                    -0.87165   6.99462   3.33667 
 1                    -3.2253    6.26752   3.33679 
 1                    -4.89746   4.9615    2.16815 
 1                    -3.0245    6.28122  -2.2171 
 1                    -6.29404   3.17495  -3.38583 
 1                    -4.81695   5.14642  -3.38576 
 1                    -6.14026   3.30438   2.16808 
 1                    -6.87922   1.13563  -2.21719 
 1                    -6.92387   1.33251   3.33667 
 1                    -6.95947  -1.13062   3.33665 
 1                    -6.23342  -3.12436   2.168 
 1                    -6.9096   -0.93511  -2.2172 
 1                    -4.96442  -5.00399  -3.38585 
 1                    -6.38379  -2.99057  -3.3859 
 1                    -5.04001  -4.81724   2.16805 
 1                    -3.20569  -6.19042  -2.21712 
 1                    -3.4064   -6.17103   3.33678 
 1                    -1.07472  -6.96579   3.33675 
 1                     1.0456   -6.89195   2.16797 
 1                    -1.24566  -6.85923  -2.21714 
 1                     3.22531  -6.26752  -3.38602 
 1                     0.87165  -6.99462  -3.3859 
 1                     3.02452  -6.28125   2.16787 
 1                     4.89746  -4.96151  -2.21738 
 1                     4.81695  -5.14643   3.33653 
 1                     6.29403  -3.17495   3.3366 
 1                     6.8792   -1.13563   2.16795 
 1                     6.14023  -3.30436  -2.21731 
 
 Symmetry turned off by external request.
 Stoichiometry    C80H40
 Framework group  C1[X(C80H40)]
 Deg. of freedom   354
 Full point group                 C1      NOp   1
                          Input orientation:                          
 ---------------------------------------------------------------------
 Center     Atomic      Atomic             Coordinates (Angstroms)
 Number     Number       Type             X           Y           Z
 ---------------------------------------------------------------------
      1          6           0        6.736854   -1.517406   -1.221891
      2          6           0        6.860661   -0.832219    0.029979
      3          6           0        6.918147    0.577789   -2.450473
      4          6           0        6.898521   -0.778727   -2.450487
      5          6           0        6.778002    1.320840   -1.221875
      6          6           0        6.881945    0.632354    0.030000
      7          6           0        6.778266    1.400234    1.195498
      8          6           0        6.387225    2.666201   -1.244754
      9          6           0        6.039344    3.358636   -0.079271
     10          6           0        6.341790    2.731466    1.172617
     11          6           0        6.037926    3.423807    2.401250
     12          6           0        5.256262    4.532630    2.401222
     13          6           0        5.195416    4.555811   -0.079307
     14          6           0        4.706391    5.051505    1.172570
     15          6           0        3.599549    5.910319    1.195422
     16          6           0        4.660251    5.116178   -1.244805
     17          6           0        3.524683    5.936663   -1.221947
     18          6           0        2.911323    6.266315    0.029912
     19          6           0        1.587858    6.755984   -2.450564
     20          6           0        2.871955    6.318262   -2.450583
     21          6           0        0.837984    6.852636   -1.221929
     22          6           0        1.524964    6.739044    0.029937
     23          6           0        0.762680    6.877923    1.195455
     24          6           0       -0.562274    6.896894   -1.244756
     25          6           0       -1.328270    6.780489   -0.079210
     26          6           0       -0.638280    6.874303    1.172629
     27          6           0       -1.390626    6.799588    2.401280
     28          6           0       -2.686842    6.399160    2.401342
     29          6           0       -2.727786    6.348267   -0.079143
     30          6           0       -3.350395    6.036554    1.172753
     31          6           0       -4.509314    5.249405    1.195658
     32          6           0       -3.426193    6.012547   -1.244608
     33          6           0       -4.557540    5.186287   -1.221710
     34          6           0       -5.060678    4.704942    0.030164
     35          6           0       -5.935779    3.597984   -2.450407
     36          6           0       -5.122301    4.683679   -2.450372
     37          6           0       -6.259614    2.914737   -1.221785
     38          6           0       -5.939129    3.532857    0.030128
     39          6           0       -6.307149    2.850857    1.195577
     40          6           0       -6.734563    1.596758   -1.244703
     41          6           0       -6.860661    0.832221   -0.079212
     42          6           0       -6.736858    1.517409    1.172659
     43          6           0       -6.898519    0.778730    2.401254
     44          6           0       -6.918139   -0.577787    2.401241
     45          6           0       -6.881939   -0.632352   -0.079232
     46          6           0       -6.777996   -1.320838    1.172644
     47          6           0       -6.387219   -2.666198    1.195522
     48          6           0       -6.778256   -1.400231   -1.244729
     49          6           0       -6.341788   -2.731466   -1.221849
     50          6           0       -6.039345   -3.358636    0.030039
     51          6           0       -5.256270   -4.532635   -2.450454
     52          6           0       -6.037928   -3.423809   -2.450483
     53          6           0       -4.706398   -5.051509   -1.221800
     54          6           0       -5.195423   -4.555816    0.030075
     55          6           0       -4.660261   -5.116186    1.195573
     56          6           0       -3.599556   -5.910323   -1.244654
     57          6           0       -2.911325   -6.266314   -0.079145
     58          6           0       -3.524688   -5.936665    1.172715
     59          6           0       -2.871958   -6.318260    2.401350
     60          6           0       -1.587858   -6.755976    2.401331
     61          6           0       -1.524965   -6.739036   -0.079170
     62          6           0       -0.837985   -6.852628    1.172698
     63          6           0        0.562274   -6.896886    1.195523
     64          6           0       -0.762681   -6.877910   -1.244688
     65          6           0        0.638280   -6.874298   -1.221862
     66          6           0        1.328269   -6.780489    0.029975
     67          6           0        2.686843   -6.399164   -2.450576
     68          6           0        1.390627   -6.799586   -2.450514
     69          6           0        3.350396   -6.036557   -1.221986
     70          6           0        2.727788   -6.348272    0.029909
     71          6           0        3.426199   -6.012558    1.195374
     72          6           0        4.509315   -5.249408   -1.244892
     73          6           0        5.060676   -4.704941   -0.079399
     74          6           0        4.557541   -5.186291    1.172476
     75          6           0        5.122298   -4.683681    2.401137
     76          6           0        5.935771   -3.597981    2.401173
     77          6           0        5.939121   -3.532853   -0.079362
     78          6           0        6.259606   -2.914734    1.172554
     79          6           0        6.734555   -1.596755    1.195470
     80          6           0        6.307137   -2.850851   -1.244810
     81          1           0        6.959485    1.130622   -3.385884
     82          1           0        6.923870   -1.332508   -3.385905
     83          1           0        6.909623    0.935111    2.167969
     84          1           0        6.233436    3.124367   -2.217234
     85          1           0        6.383780    2.990570    3.336673
     86          1           0        4.964411    5.003982    3.336624
     87          1           0        3.205677    6.190408    2.167891
     88          1           0        5.039987    4.817217   -2.217279
     89          1           0        1.074725    6.965810   -3.385976
     90          1           0        3.406400    6.171033   -3.386006
     91          1           0        1.245664    6.859258    2.167908
     92          1           0       -1.045601    6.891969   -2.217202
     93          1           0       -0.871652    6.994619    3.336669
     94          1           0       -3.225303    6.267516    3.336787
     95          1           0       -4.897457    4.961500    2.168150
     96          1           0       -3.024501    6.281224   -2.217100
     97          1           0       -6.294041    3.174953   -3.385832
     98          1           0       -4.816954    5.146425   -3.385760
     99          1           0       -6.140259    3.304376    2.168076
    100          1           0       -6.879220    1.135632   -2.217185
    101          1           0       -6.923866    1.332510    3.336674
    102          1           0       -6.959469   -1.130616    3.336654
    103          1           0       -6.233420   -3.124361    2.168002
    104          1           0       -6.909597   -0.935105   -2.217200
    105          1           0       -4.964423   -5.003994   -3.385854
    106          1           0       -6.383785   -2.990571   -3.385904
    107          1           0       -5.040008   -4.817239    2.168047
    108          1           0       -3.205689   -6.190421   -2.217123
    109          1           0       -3.406401   -6.171031    3.336775
    110          1           0       -1.074724   -6.965793    3.336745
    111          1           0        1.045601   -6.891950    2.167968
    112          1           0       -1.245664   -6.859228   -2.217141
    113          1           0        3.225308   -6.267524   -3.386019
    114          1           0        0.871650   -6.994619   -3.385903
    115          1           0        3.024516   -6.281252    2.167866
    116          1           0        4.897463   -4.961510   -2.217384
    117          1           0        4.816953   -5.146426    3.336526
    118          1           0        6.294025   -3.174949    3.336601
    119          1           0        6.879203   -1.135626    2.167953
    120          1           0        6.140233   -3.304363   -2.217310
 ---------------------------------------------------------------------
 Rotational constants (GHZ):           0.0191399           0.0191335           0.0105420
 Standard basis: 6-311G(d) (5D, 7F)
  1560 basis functions,  2760 primitive gaussians,  1640 cartesian basis functions
   260 alpha electrons      260 beta electrons
       nuclear repulsion energy     10778.6158221953 Hartrees.
 NAtoms=  120 NActive=  120 NUniq=  120 SFac= 1.00D+00 NAtFMM=   60 NAOKFM=T Big=T
 Integral buffers will be    131072 words long.
 Raffenetti 2 integral format.
 Two-electron integral symmetry is turned off.
 One-electron integrals computed using PRISM.
 NBasis=  1560 RedAO= T EigKep=  3.83D-05  NBF=  1560
 NBsUse=  1560 1.00D-06 EigRej= -1.00D+00 NBFU=  1560
 ExpMin= 1.03D-01 ExpMax= 4.56D+03 ExpMxC= 6.82D+02 IAcc=3 IRadAn=         5 AccDes= 0.00D+00
 Harris functional with IExCor=  402 and IRadAn=       5 diagonalized for initial guess.
 HarFok:  IExCor=  402 AccDes= 0.00D+00 IRadAn=         5 IDoV= 1 UseB2=F ITyADJ=14
 ICtDFT=  3500011 ScaDFX=  1.000000  1.000000  1.000000  1.000000
 FoFCou: FMM=F IPFlag=           0 FMFlag=      100000 FMFlg1=        2001
         NFxFlg=           0 DoJE=T BraDBF=F KetDBF=T FulRan=T
         wScrn=  0.000000 ICntrl=       500 IOpCl=  0 I1Cent=   200000004 NGrid=           0
         NMat0=    1 NMatS0=      1 NMatT0=    0 NMatD0=    1 NMtDS0=    0 NMtDT0=    0
 Symmetry not used in FoFCou.
 Requested convergence on RMS density matrix=1.00D-08 within 128 cycles.
 Requested convergence on MAX density matrix=1.00D-06.
 Requested convergence on             energy=1.00D-06.
 No special actions if energy rises.
 Integral accuracy reduced to 1.0D-05 until final iterations.
 Rare condition: small coef for last iteration:  0.000D+00
 Rare condition: small coef for last iteration:  0.000D+00
 Initial convergence to 1.0D-05 achieved.  Increase integral accuracy.
 SCF Done:  E(RB3LYP) =  -3073.34991603     A.U. after   16 cycles
            NFock= 16  Conv=0.78D-08     -V/T= 2.0044
 Hyperfine terms turned off by default for NAtoms > 100.

 **********************************************************************

            Population analysis using the SCF Density.

 **********************************************************************

 Alpha  occ. eigenvalues --  -10.19493 -10.19493 -10.19493 -10.19493 -10.19492
 Alpha  occ. eigenvalues --  -10.19492 -10.19492 -10.19491 -10.19491 -10.19491
 Alpha  occ. eigenvalues --  -10.19461 -10.19461 -10.19460 -10.19460 -10.19460
 Alpha  occ. eigenvalues --  -10.19460 -10.19460 -10.19459 -10.19459 -10.19459
 Alpha  occ. eigenvalues --  -10.19214 -10.19214 -10.19214 -10.19214 -10.19214
 Alpha  occ. eigenvalues --  -10.19214 -10.19214 -10.19213 -10.19213 -10.19213
 Alpha  occ. eigenvalues --  -10.19213 -10.19213 -10.19213 -10.19213 -10.19212
 Alpha  occ. eigenvalues --  -10.19212 -10.19212 -10.19212 -10.19212 -10.19212
 Alpha  occ. eigenvalues --  -10.18304 -10.18304 -10.18304 -10.18304 -10.18304
 Alpha  occ. eigenvalues --  -10.18304 -10.18304 -10.18304 -10.18304 -10.18304
 Alpha  occ. eigenvalues --  -10.18303 -10.18303 -10.18303 -10.18303 -10.18302
 Alpha  occ. eigenvalues --  -10.18302 -10.18302 -10.18302 -10.18302 -10.18302
 Alpha  occ. eigenvalues --  -10.18289 -10.18289 -10.18289 -10.18289 -10.18289
 Alpha  occ. eigenvalues --  -10.18289 -10.18288 -10.18288 -10.18288 -10.18288
 Alpha  occ. eigenvalues --  -10.18220 -10.18220 -10.18219 -10.18219 -10.18219
 Alpha  occ. eigenvalues --  -10.18219 -10.18219 -10.18219 -10.18219 -10.18219
 Alpha  occ. eigenvalues --   -0.90340  -0.90127  -0.90127  -0.89494  -0.89494
 Alpha  occ. eigenvalues --   -0.88459  -0.88459  -0.87064  -0.87064  -0.85554
 Alpha  occ. eigenvalues --   -0.85234  -0.83693  -0.83693  -0.82271  -0.82271
 Alpha  occ. eigenvalues --   -0.81038  -0.81038  -0.80341  -0.79803  -0.79803
 Alpha  occ. eigenvalues --   -0.79787  -0.79786  -0.78892  -0.78143  -0.78143
 Alpha  occ. eigenvalues --   -0.77289  -0.76261  -0.76261  -0.75678  -0.75678
 Alpha  occ. eigenvalues --   -0.74473  -0.74473  -0.72859  -0.72859  -0.72571
 Alpha  occ. eigenvalues --   -0.72571  -0.71361  -0.71361  -0.70645  -0.70420
 Alpha  occ. eigenvalues --   -0.67426  -0.65703  -0.65506  -0.65506  -0.65010
 Alpha  occ. eigenvalues --   -0.65010  -0.63762  -0.63762  -0.63684  -0.63684
 Alpha  occ. eigenvalues --   -0.62754  -0.62252  -0.62252  -0.61355  -0.61355
 Alpha  occ. eigenvalues --   -0.60557  -0.60557  -0.58949  -0.58949  -0.57937
 Alpha  occ. eigenvalues --   -0.57479  -0.57479  -0.57426  -0.57426  -0.56514
 Alpha  occ. eigenvalues --   -0.54984  -0.54984  -0.53999  -0.53492  -0.52811
 Alpha  occ. eigenvalues --   -0.52811  -0.52754  -0.52754  -0.51429  -0.51429
 Alpha  occ. eigenvalues --   -0.50841  -0.50841  -0.50580  -0.50580  -0.50292
 Alpha  occ. eigenvalues --   -0.48131  -0.48011  -0.48011  -0.47755  -0.47755
 Alpha  occ. eigenvalues --   -0.47572  -0.47571  -0.46679  -0.46679  -0.45969
 Alpha  occ. eigenvalues --   -0.45969  -0.45856  -0.45442  -0.45442  -0.44571
 Alpha  occ. eigenvalues --   -0.44176  -0.44175  -0.44142  -0.43929  -0.43929
 Alpha  occ. eigenvalues --   -0.43702  -0.43702  -0.43601  -0.43241  -0.43241
 Alpha  occ. eigenvalues --   -0.43200  -0.43200  -0.42651  -0.42526  -0.42526
 Alpha  occ. eigenvalues --   -0.42311  -0.42311  -0.41801  -0.41751  -0.41650
 Alpha  occ. eigenvalues --   -0.41649  -0.41088  -0.41088  -0.41075  -0.41075
 Alpha  occ. eigenvalues --   -0.41000  -0.40137  -0.40137  -0.40122  -0.40121
 Alpha  occ. eigenvalues --   -0.40113  -0.40113  -0.39479  -0.39479  -0.39029
 Alpha  occ. eigenvalues --   -0.37584  -0.37583  -0.37289  -0.36643  -0.36643
 Alpha  occ. eigenvalues --   -0.36455  -0.36455  -0.36273  -0.35736  -0.35052
 Alpha  occ. eigenvalues --   -0.35052  -0.34905  -0.34905  -0.34287  -0.34287
 Alpha  occ. eigenvalues --   -0.33888  -0.33888  -0.33803  -0.33803  -0.33558
 Alpha  occ. eigenvalues --   -0.32839  -0.32838  -0.32703  -0.32703  -0.32424
 Alpha  occ. eigenvalues --   -0.31730  -0.31729  -0.31653  -0.30768  -0.30768
 Alpha  occ. eigenvalues --   -0.30312  -0.30312  -0.29046  -0.28310  -0.28310
 Alpha  occ. eigenvalues --   -0.27946  -0.26481  -0.26481  -0.25388  -0.25387
 Alpha  occ. eigenvalues --   -0.23850  -0.23850  -0.22133  -0.22132  -0.21529
 Alpha  occ. eigenvalues --   -0.21529  -0.20433  -0.20433  -0.19854  -0.19708
 Alpha virt. eigenvalues --   -0.08322  -0.07562  -0.06859  -0.06858  -0.06615
 Alpha virt. eigenvalues --   -0.06615  -0.05286  -0.05286  -0.04173  -0.04173
 Alpha virt. eigenvalues --   -0.01936  -0.01936  -0.01430  -0.01430  -0.00819
 Alpha virt. eigenvalues --    0.00743   0.00743   0.02526   0.03122   0.03122
 Alpha virt. eigenvalues --    0.03124   0.03125   0.03431   0.03716   0.03716
 Alpha virt. eigenvalues --    0.03997   0.04320   0.04320   0.04416   0.04416
 Alpha virt. eigenvalues --    0.04493   0.04665   0.04665   0.05223   0.05223
 Alpha virt. eigenvalues --    0.06259   0.06260   0.06348   0.06349   0.06950
 Alpha virt. eigenvalues --    0.06950   0.07500   0.07500   0.07815   0.07816
 Alpha virt. eigenvalues --    0.08605   0.08866   0.08867   0.08925   0.09637
 Alpha virt. eigenvalues --    0.10199   0.10781   0.10781   0.11216   0.11840
 Alpha virt. eigenvalues --    0.11841   0.12065   0.12066   0.12194   0.12696
 Alpha virt. eigenvalues --    0.12696   0.13482   0.13483   0.14654   0.14654
 Alpha virt. eigenvalues --    0.16594   0.16595   0.17853   0.17884   0.17884
 Alpha virt. eigenvalues --    0.17938   0.17938   0.18011   0.18012   0.18310
 Alpha virt. eigenvalues --    0.18311   0.18636   0.18732   0.18734   0.19069
 Alpha virt. eigenvalues --    0.21841   0.21842   0.22232   0.22232   0.22411
 Alpha virt. eigenvalues --    0.22411   0.22541   0.22541   0.22681   0.22709
 Alpha virt. eigenvalues --    0.23511   0.23641   0.23641   0.24061   0.24464
 Alpha virt. eigenvalues --    0.24465   0.24648   0.24648   0.25246   0.25247
 Alpha virt. eigenvalues --    0.25336   0.25336   0.26425   0.26768   0.26768
 Alpha virt. eigenvalues --    0.26972   0.26974   0.27123   0.27124   0.27671
 Alpha virt. eigenvalues --    0.27671   0.27698   0.27756   0.28290   0.28290
 Alpha virt. eigenvalues --    0.28315   0.29510   0.29511   0.29998   0.29999
 Alpha virt. eigenvalues --    0.30002   0.30002   0.30715   0.30716   0.30875
 Alpha virt. eigenvalues --    0.30875   0.31102   0.31102   0.31318   0.32435
 Alpha virt. eigenvalues --    0.33076   0.33077   0.33248   0.33250   0.33697
 Alpha virt. eigenvalues --    0.34152   0.35103   0.35103   0.35453   0.35453
 Alpha virt. eigenvalues --    0.35651   0.35864   0.35864   0.36005   0.36167
 Alpha virt. eigenvalues --    0.36167   0.36479   0.36479   0.36539   0.36539
 Alpha virt. eigenvalues --    0.36713   0.36892   0.36892   0.37200   0.37201
 Alpha virt. eigenvalues --    0.37295   0.37295   0.37755   0.37755   0.38046
 Alpha virt. eigenvalues --    0.38107   0.38108   0.38216   0.38216   0.38308
 Alpha virt. eigenvalues --    0.38308   0.38792   0.39066   0.39067   0.39179
 Alpha virt. eigenvalues --    0.39179   0.39425   0.39595   0.39636   0.39637
 Alpha virt. eigenvalues --    0.40329   0.40329   0.40503   0.40642   0.40643
 Alpha virt. eigenvalues --    0.40694   0.41270   0.41271   0.41519   0.41519
 Alpha virt. eigenvalues --    0.41676   0.41676   0.41794   0.41923   0.41923
 Alpha virt. eigenvalues --    0.42204   0.42205   0.42295   0.42446   0.42447
 Alpha virt. eigenvalues --    0.42544   0.42545   0.43154   0.43154   0.43341
 Alpha virt. eigenvalues --    0.43341   0.43391   0.43762   0.43762   0.43844
 Alpha virt. eigenvalues --    0.43844   0.43931   0.44460   0.44473   0.44874
 Alpha virt. eigenvalues --    0.44874   0.44901   0.44902   0.45053   0.45053
 Alpha virt. eigenvalues --    0.45260   0.45344   0.45345   0.45480   0.45480
 Alpha virt. eigenvalues --    0.45670   0.45670   0.45824   0.45962   0.45962
 Alpha virt. eigenvalues --    0.46031   0.46031   0.46371   0.46522   0.46522
 Alpha virt. eigenvalues --    0.46959   0.46959   0.47170   0.47171   0.47292
 Alpha virt. eigenvalues --    0.47293   0.47548   0.47670   0.48053   0.48224
 Alpha virt. eigenvalues --    0.48287   0.48473   0.48474   0.48506   0.48506
 Alpha virt. eigenvalues --    0.48612   0.48612   0.48746   0.48747   0.49310
 Alpha virt. eigenvalues --    0.49311   0.49786   0.49786   0.50036   0.50036
 Alpha virt. eigenvalues --    0.50164   0.50165   0.50234   0.50734   0.50734
 Alpha virt. eigenvalues --    0.50792   0.50792   0.51692   0.51890   0.51890
 Alpha virt. eigenvalues --    0.51982   0.51982   0.52643   0.52802   0.52803
 Alpha virt. eigenvalues --    0.52869   0.52869   0.52918   0.52919   0.52942
 Alpha virt. eigenvalues --    0.52988   0.54207   0.54208   0.54743   0.54744
 Alpha virt. eigenvalues --    0.54841   0.54841   0.55190   0.55823   0.55823
 Alpha virt. eigenvalues --    0.55885   0.55886   0.58199   0.58270   0.58271
 Alpha virt. eigenvalues --    0.58610   0.58611   0.59001   0.59001   0.59132
 Alpha virt. eigenvalues --    0.59132   0.59148   0.59149   0.59206   0.59333
 Alpha virt. eigenvalues --    0.59522   0.59523   0.59684   0.59684   0.60233
 Alpha virt. eigenvalues --    0.60590   0.60591   0.60785   0.61165   0.61165
 Alpha virt. eigenvalues --    0.61642   0.62221   0.62221   0.62743   0.62744
 Alpha virt. eigenvalues --    0.62804   0.62804   0.62931   0.62932   0.64022
 Alpha virt. eigenvalues --    0.64051   0.64225   0.64225   0.64543   0.64543
 Alpha virt. eigenvalues --    0.64611   0.64611   0.64886   0.65173   0.65173
 Alpha virt. eigenvalues --    0.65938   0.66004   0.66004   0.67438   0.67438
 Alpha virt. eigenvalues --    0.67442   0.67443   0.67445   0.67829   0.67830
 Alpha virt. eigenvalues --    0.68688   0.68688   0.69042   0.69043   0.69616
 Alpha virt. eigenvalues --    0.69617   0.70813   0.71025   0.71025   0.71041
 Alpha virt. eigenvalues --    0.71042   0.71125   0.71125   0.72279   0.72453
 Alpha virt. eigenvalues --    0.72624   0.72625   0.72676   0.72749   0.72749
 Alpha virt. eigenvalues --    0.73987   0.73988   0.74190   0.74603   0.74817
 Alpha virt. eigenvalues --    0.74817   0.74825   0.74825   0.75355   0.75355
 Alpha virt. eigenvalues --    0.75868   0.75868   0.76677   0.76677   0.76855
 Alpha virt. eigenvalues --    0.76856   0.78089   0.78129   0.78130   0.78336
 Alpha virt. eigenvalues --    0.78337   0.78459   0.78459   0.78536   0.78910
 Alpha virt. eigenvalues --    0.78910   0.79343   0.79343   0.79559   0.79745
 Alpha virt. eigenvalues --    0.79745   0.79933   0.79952   0.79953   0.80095
 Alpha virt. eigenvalues --    0.80433   0.80434   0.81588   0.81589   0.81800
 Alpha virt. eigenvalues --    0.81803   0.82096   0.82276   0.82652   0.82652
 Alpha virt. eigenvalues --    0.82730   0.82730   0.82800   0.82801   0.82941
 Alpha virt. eigenvalues --    0.83476   0.83477   0.83691   0.83692   0.83756
 Alpha virt. eigenvalues --    0.83834   0.83836   0.83855   0.83857   0.84387
 Alpha virt. eigenvalues --    0.84536   0.84835   0.84836   0.84895   0.84896
 Alpha virt. eigenvalues --    0.85657   0.85658   0.86379   0.86380   0.86770
 Alpha virt. eigenvalues --    0.86776   0.87118   0.87120   0.87181   0.87183
 Alpha virt. eigenvalues --    0.87730   0.87731   0.88102   0.88104   0.88690
 Alpha virt. eigenvalues --    0.88692   0.89275   0.89275   0.89435   0.89437
 Alpha virt. eigenvalues --    0.89781   0.90282   0.90285   0.90636   0.90887
 Alpha virt. eigenvalues --    0.90889   0.91533   0.91534   0.93428   0.93437
 Alpha virt. eigenvalues --    0.93439   0.93439   0.94219   0.94220   0.94386
 Alpha virt. eigenvalues --    0.95487   0.95491   0.96132   0.96133   0.96926
 Alpha virt. eigenvalues --    0.97596   0.97596   0.98352   0.99332   0.99333
 Alpha virt. eigenvalues --    0.99697   1.00148   1.00152   1.00344   1.00345
 Alpha virt. eigenvalues --    1.00710   1.01543   1.01544   1.01589   1.01590
 Alpha virt. eigenvalues --    1.01625   1.01848   1.01849   1.02073   1.02537
 Alpha virt. eigenvalues --    1.03256   1.03256   1.03812   1.03812   1.04221
 Alpha virt. eigenvalues --    1.04222   1.04627   1.04627   1.06314   1.06315
 Alpha virt. eigenvalues --    1.06764   1.06765   1.06997   1.07110   1.07111
 Alpha virt. eigenvalues --    1.08502   1.08645   1.08646   1.08729   1.08824
 Alpha virt. eigenvalues --    1.08825   1.09398   1.09398   1.10030   1.10034
 Alpha virt. eigenvalues --    1.10517   1.10518   1.10969   1.10971   1.11405
 Alpha virt. eigenvalues --    1.12881   1.12884   1.14394   1.14397   1.14439
 Alpha virt. eigenvalues --    1.14441   1.14748   1.14751   1.15143   1.15328
 Alpha virt. eigenvalues --    1.15328   1.15385   1.15449   1.15451   1.15631
 Alpha virt. eigenvalues --    1.15634   1.15879   1.15882   1.15935   1.16026
 Alpha virt. eigenvalues --    1.16979   1.17579   1.17629   1.17629   1.17793
 Alpha virt. eigenvalues --    1.17794   1.17799   1.17801   1.18339   1.18340
 Alpha virt. eigenvalues --    1.18405   1.18406   1.18698   1.18948   1.18951
 Alpha virt. eigenvalues --    1.19627   1.19628   1.20110   1.20113   1.20555
 Alpha virt. eigenvalues --    1.20556   1.21328   1.21652   1.21653   1.21867
 Alpha virt. eigenvalues --    1.23245   1.23247   1.23306   1.23306   1.24077
 Alpha virt. eigenvalues --    1.24079   1.24693   1.24693   1.25910   1.26263
 Alpha virt. eigenvalues --    1.27543   1.27543   1.28974   1.28977   1.29313
 Alpha virt. eigenvalues --    1.29459   1.29459   1.30022   1.30027   1.30429
 Alpha virt. eigenvalues --    1.30430   1.30853   1.31372   1.31375   1.31780
 Alpha virt. eigenvalues --    1.31784   1.32216   1.32217   1.32624   1.33279
 Alpha virt. eigenvalues --    1.33284   1.33624   1.33624   1.34304   1.34305
 Alpha virt. eigenvalues --    1.34343   1.34402   1.34758   1.34761   1.35643
 Alpha virt. eigenvalues --    1.36937   1.39606   1.40332   1.40332   1.40855
 Alpha virt. eigenvalues --    1.40858   1.41157   1.41409   1.41409   1.41953
 Alpha virt. eigenvalues --    1.42064   1.42066   1.42100   1.42100   1.43104
 Alpha virt. eigenvalues --    1.43104   1.43209   1.43210   1.43751   1.43751
 Alpha virt. eigenvalues --    1.44984   1.45582   1.45583   1.46511   1.46511
 Alpha virt. eigenvalues --    1.47201   1.47202   1.47347   1.47446   1.47498
 Alpha virt. eigenvalues --    1.47499   1.47972   1.47974   1.48148   1.48150
 Alpha virt. eigenvalues --    1.49322   1.49323   1.49365   1.49367   1.49718
 Alpha virt. eigenvalues --    1.50632   1.50632   1.51338   1.51530   1.51530
 Alpha virt. eigenvalues --    1.51562   1.51626   1.51627   1.52310   1.52311
 Alpha virt. eigenvalues --    1.53837   1.53839   1.54761   1.54761   1.54820
 Alpha virt. eigenvalues --    1.55088   1.55089   1.55158   1.55159   1.55352
 Alpha virt. eigenvalues --    1.55807   1.55963   1.55963   1.56198   1.56198
 Alpha virt. eigenvalues --    1.56427   1.56427   1.59402   1.59403   1.59603
 Alpha virt. eigenvalues --    1.59604   1.60105   1.60105   1.60553   1.60627
 Alpha virt. eigenvalues --    1.60628   1.61489   1.61654   1.61655   1.61667
 Alpha virt. eigenvalues --    1.63056   1.63714   1.63716   1.64220   1.64843
 Alpha virt. eigenvalues --    1.64843   1.66058   1.66060   1.66277   1.66277
 Alpha virt. eigenvalues --    1.67133   1.67133   1.68038   1.68039   1.68064
 Alpha virt. eigenvalues --    1.68841   1.69300   1.69300   1.69953   1.69954
 Alpha virt. eigenvalues --    1.72330   1.72330   1.72751   1.73016   1.73017
 Alpha virt. eigenvalues --    1.73285   1.73285   1.73554   1.73554   1.73971
 Alpha virt. eigenvalues --    1.75596   1.75660   1.75661   1.76692   1.76693
 Alpha virt. eigenvalues --    1.77202   1.77240   1.77241   1.77566   1.77980
 Alpha virt. eigenvalues --    1.77981   1.78608   1.78610   1.78962   1.78963
 Alpha virt. eigenvalues --    1.80105   1.80106   1.80240   1.80240   1.80326
 Alpha virt. eigenvalues --    1.80633   1.80797   1.80798   1.82886   1.82886
 Alpha virt. eigenvalues --    1.83114   1.83491   1.83491   1.83747   1.83749
 Alpha virt. eigenvalues --    1.84124   1.84124   1.84284   1.84285   1.85524
 Alpha virt. eigenvalues --    1.86322   1.86323   1.86733   1.86734   1.87029
 Alpha virt. eigenvalues --    1.87744   1.87745   1.87765   1.87766   1.87851
 Alpha virt. eigenvalues --    1.88184   1.88185   1.88309   1.88309   1.89378
 Alpha virt. eigenvalues --    1.89706   1.89707   1.91843   1.92030   1.92032
 Alpha virt. eigenvalues --    1.92297   1.92298   1.92837   1.93410   1.93412
 Alpha virt. eigenvalues --    1.93937   1.93938   1.94220   1.94220   1.94237
 Alpha virt. eigenvalues --    1.94333   1.94334   1.94473   1.94474   1.94637
 Alpha virt. eigenvalues --    1.95503   1.95746   1.95747   1.95814   1.95814
 Alpha virt. eigenvalues --    1.95838   1.95839   1.95862   1.95862   1.96048
 Alpha virt. eigenvalues --    1.99707   1.99709   1.99860   1.99862   2.00770
 Alpha virt. eigenvalues --    2.01277   2.01278   2.02868   2.02868   2.03411
 Alpha virt. eigenvalues --    2.03411   2.03452   2.03456   2.03499   2.03744
 Alpha virt. eigenvalues --    2.04234   2.04476   2.04476   2.04912   2.04913
 Alpha virt. eigenvalues --    2.06252   2.06253   2.06357   2.06357   2.08417
 Alpha virt. eigenvalues --    2.08419   2.09177   2.10146   2.10147   2.10268
 Alpha virt. eigenvalues --    2.10568   2.11308   2.11309   2.11604   2.11605
 Alpha virt. eigenvalues --    2.12258   2.14537   2.14539   2.15407   2.15407
 Alpha virt. eigenvalues --    2.17229   2.17769   2.17769   2.18345   2.18346
 Alpha virt. eigenvalues --    2.19416   2.19416   2.20521   2.20530   2.20531
 Alpha virt. eigenvalues --    2.21406   2.21408   2.22868   2.22872   2.22907
 Alpha virt. eigenvalues --    2.23230   2.23233   2.24170   2.24171   2.24412
 Alpha virt. eigenvalues --    2.27944   2.28278   2.28279   2.28351   2.28352
 Alpha virt. eigenvalues --    2.28553   2.28556   2.28642   2.28643   2.30378
 Alpha virt. eigenvalues --    2.30532   2.30850   2.30850   2.30941   2.30943
 Alpha virt. eigenvalues --    2.31815   2.31817   2.31937   2.32016   2.32158
 Alpha virt. eigenvalues --    2.32159   2.32281   2.32749   2.32750   2.33115
 Alpha virt. eigenvalues --    2.33118   2.33591   2.33594   2.34400   2.34401
 Alpha virt. eigenvalues --    2.37828   2.37829   2.38682   2.38682   2.38899
 Alpha virt. eigenvalues --    2.38928   2.38929   2.40182   2.40185   2.41095
 Alpha virt. eigenvalues --    2.41095   2.41355   2.42075   2.42928   2.42929
 Alpha virt. eigenvalues --    2.44837   2.45458   2.45459   2.45998   2.45999
 Alpha virt. eigenvalues --    2.47586   2.47587   2.48135   2.48135   2.48394
 Alpha virt. eigenvalues --    2.48395   2.49057   2.49058   2.49216   2.49810
 Alpha virt. eigenvalues --    2.49811   2.49832   2.49847   2.50170   2.50172
 Alpha virt. eigenvalues --    2.50848   2.51623   2.51624   2.51998   2.51999
 Alpha virt. eigenvalues --    2.54572   2.54574   2.54847   2.55252   2.55253
 Alpha virt. eigenvalues --    2.55285   2.55285   2.55760   2.56710   2.56827
 Alpha virt. eigenvalues --    2.56830   2.57134   2.57135   2.57481   2.57482
 Alpha virt. eigenvalues --    2.58224   2.58225   2.58711   2.59308   2.59308
 Alpha virt. eigenvalues --    2.59473   2.60021   2.60022   2.61485   2.61488
 Alpha virt. eigenvalues --    2.63826   2.63826   2.64931   2.64932   2.65091
 Alpha virt. eigenvalues --    2.65093   2.65197   2.65579   2.65580   2.65902
 Alpha virt. eigenvalues --    2.66722   2.68199   2.68200   2.69040   2.69041
 Alpha virt. eigenvalues --    2.70161   2.70738   2.70738   2.70762   2.70763
 Alpha virt. eigenvalues --    2.71628   2.71629   2.73074   2.73077   2.73259
 Alpha virt. eigenvalues --    2.73259   2.73389   2.73684   2.73685   2.75330
 Alpha virt. eigenvalues --    2.75996   2.76408   2.76409   2.76681   2.76682
 Alpha virt. eigenvalues --    2.78094   2.78095   2.78977   2.78978   2.79821
 Alpha virt. eigenvalues --    2.79821   2.79985   2.80542   2.80720   2.80720
 Alpha virt. eigenvalues --    2.81911   2.81912   2.82770   2.84737   2.84737
 Alpha virt. eigenvalues --    2.88769   2.88769   2.88823   2.88975   2.88977
 Alpha virt. eigenvalues --    2.89188   2.89191   2.89298   2.90228   2.90230
 Alpha virt. eigenvalues --    2.92254   2.92255   2.94746   2.94747   2.95226
 Alpha virt. eigenvalues --    2.95227   2.95301   2.95640   2.95640   2.96443
 Alpha virt. eigenvalues --    2.96444   2.98697   2.98699   2.99260   2.99847
 Alpha virt. eigenvalues --    2.99847   3.00119   3.00735   3.01297   3.01803
 Alpha virt. eigenvalues --    3.01803   3.03489   3.03489   3.04100   3.04101
 Alpha virt. eigenvalues --    3.07368   3.07368   3.07419   3.07419   3.08121
 Alpha virt. eigenvalues --    3.09486   3.09487   3.10421   3.11311   3.11311
 Alpha virt. eigenvalues --    3.11521   3.11521   3.11781   3.12083   3.12084
 Alpha virt. eigenvalues --    3.12213   3.12214   3.12423   3.12423   3.12439
 Alpha virt. eigenvalues --    3.13530   3.14630   3.14632   3.15877   3.16272
 Alpha virt. eigenvalues --    3.16273   3.16670   3.16671   3.17403   3.17404
 Alpha virt. eigenvalues --    3.17526   3.17527   3.18249   3.18251   3.18602
 Alpha virt. eigenvalues --    3.18923   3.18923   3.19248   3.19252   3.19253
 Alpha virt. eigenvalues --    3.22527   3.22950   3.22952   3.23767   3.23768
 Alpha virt. eigenvalues --    3.23951   3.23952   3.24126   3.24128   3.24230
 Alpha virt. eigenvalues --    3.24955   3.24956   3.24961   3.24963   3.24991
 Alpha virt. eigenvalues --    3.26356   3.26357   3.27827   3.27828   3.28350
 Alpha virt. eigenvalues --    3.28423   3.28657   3.28659   3.29782   3.29783
 Alpha virt. eigenvalues --    3.30630   3.30631   3.30915   3.30916   3.31021
 Alpha virt. eigenvalues --    3.31418   3.31634   3.32091   3.32091   3.32255
 Alpha virt. eigenvalues --    3.32258   3.33603   3.33604   3.33990   3.33991
 Alpha virt. eigenvalues --    3.37811   3.37811   3.38170   3.38566   3.38567
 Alpha virt. eigenvalues --    3.38610   3.38611   3.39515   3.39515   3.40344
 Alpha virt. eigenvalues --    3.40959   3.40960   3.41024   3.41025   3.41507
 Alpha virt. eigenvalues --    3.42560   3.42560   3.42929   3.44099   3.44099
 Alpha virt. eigenvalues --    3.44190   3.44191   3.44345   3.44680   3.44680
 Alpha virt. eigenvalues --    3.45887   3.45888   3.46631   3.46631   3.48497
 Alpha virt. eigenvalues --    3.48497   3.48677   3.48901   3.48902   3.50251
 Alpha virt. eigenvalues --    3.50252   3.50935   3.51244   3.51245   3.52590
 Alpha virt. eigenvalues --    3.56676   3.57687   3.57688   3.59668   3.59668
 Alpha virt. eigenvalues --    3.61295   3.61295   3.63809   3.63809   3.66157
 Alpha virt. eigenvalues --    3.72079   3.73433   3.73433   3.74128   3.74128
 Alpha virt. eigenvalues --    3.74182   3.74183   3.75131   3.75132   3.75981
 Alpha virt. eigenvalues --    3.93008   3.93008   3.93305   3.93305   3.93915
 Alpha virt. eigenvalues --    3.94524   3.94525   3.96224   3.96224   3.96269
 Alpha virt. eigenvalues --    4.00394   4.00799   4.00801   4.03384   4.03384
 Alpha virt. eigenvalues --    4.06734   4.06735   4.10324   4.10325   4.14029
 Alpha virt. eigenvalues --    4.17935   4.24428   4.24431   4.35047   4.35047
 Alpha virt. eigenvalues --    4.47363   4.47367   4.58862   4.58868   4.64061
 Alpha virt. eigenvalues --    4.67416   4.67605   4.67607   4.68365   4.68367
 Alpha virt. eigenvalues --    4.69693   4.69695   4.71058   4.71060   4.71532
 Alpha virt. eigenvalues --    4.74125   4.74960   4.74960   4.77344   4.77345
 Alpha virt. eigenvalues --    4.80180   4.80180   4.82511   4.82515   4.83461
 Alpha virt. eigenvalues --   23.10509  23.14924  23.14925  23.25263  23.25263
 Alpha virt. eigenvalues --   23.37116  23.37116  23.47397  23.47399  23.52057
 Alpha virt. eigenvalues --   23.61169  23.61714  23.61714  23.63332  23.63333
 Alpha virt. eigenvalues --   23.65402  23.65403  23.67141  23.67141  23.67826
 Alpha virt. eigenvalues --   23.74996  23.77070  23.77070  23.79914  23.79914
 Alpha virt. eigenvalues --   23.81342  23.81344  23.81882  23.81883  23.82062
 Alpha virt. eigenvalues --   23.88760  23.89178  23.89178  23.90481  23.90481
 Alpha virt. eigenvalues --   23.92324  23.92324  23.93849  23.93851  23.94450
 Alpha virt. eigenvalues --   23.96891  23.97301  23.97302  23.97997  23.97998
 Alpha virt. eigenvalues --   23.98503  23.98503  23.98788  23.98789  23.98889
 Alpha virt. eigenvalues --   24.03484  24.03531  24.03532  24.03715  24.03716
 Alpha virt. eigenvalues --   24.04077  24.04078  24.04522  24.04523  24.04748
 Alpha virt. eigenvalues --   24.08067  24.08135  24.08137  24.08272  24.08272
 Alpha virt. eigenvalues --   24.08411  24.08412  24.08548  24.08550  24.08617
 Alpha virt. eigenvalues --   24.14385  24.14389  24.14390  24.14390  24.14453
 Alpha virt. eigenvalues --   24.14572  24.14576  24.14836  24.14836  24.14962
          Condensed to atoms (all electrons):
 Mulliken charges:
               1
     1  C    0.059822
     2  C    0.008672
     3  C   -0.227529
     4  C   -0.227547
     5  C    0.059790
     6  C    0.008709
     7  C   -0.236489
     8  C   -0.236441
     9  C    0.008643
    10  C    0.059846
    11  C   -0.227532
    12  C   -0.227538
    13  C    0.008662
    14  C    0.059830
    15  C   -0.236451
    16  C   -0.236436
    17  C    0.059848
    18  C    0.008602
    19  C   -0.227524
    20  C   -0.227540
    21  C    0.059826
    22  C    0.008666
    23  C   -0.236453
    24  C   -0.236435
    25  C    0.008618
    26  C    0.059859
    27  C   -0.227543
    28  C   -0.227523
    29  C    0.008644
    30  C    0.059815
    31  C   -0.236424
    32  C   -0.236466
    33  C    0.059864
    34  C    0.008625
    35  C   -0.227512
    36  C   -0.227557
    37  C    0.059818
    38  C    0.008679
    39  C   -0.236448
    40  C   -0.236492
    41  C    0.008671
    42  C    0.059824
    43  C   -0.227546
    44  C   -0.227530
    45  C    0.008707
    46  C    0.059791
    47  C   -0.236440
    48  C   -0.236489
    49  C    0.059846
    50  C    0.008641
    51  C   -0.227537
    52  C   -0.227532
    53  C    0.059828
    54  C    0.008665
    55  C   -0.236438
    56  C   -0.236452
    57  C    0.008602
    58  C    0.059849
    59  C   -0.227540
    60  C   -0.227524
    61  C    0.008665
    62  C    0.059827
    63  C   -0.236435
    64  C   -0.236452
    65  C    0.059858
    66  C    0.008618
    67  C   -0.227522
    68  C   -0.227543
    69  C    0.059813
    70  C    0.008646
    71  C   -0.236467
    72  C   -0.236425
    73  C    0.008625
    74  C    0.059865
    75  C   -0.227557
    76  C   -0.227513
    77  C    0.008677
    78  C    0.059820
    79  C   -0.236493
    80  C   -0.236446
    81  H    0.191431
    82  H    0.191433
    83  H    0.204081
    84  H    0.204075
    85  H    0.191426
    86  H    0.191424
    87  H    0.204081
    88  H    0.204074
    89  H    0.191421
    90  H    0.191425
    91  H    0.204084
    92  H    0.204082
    93  H    0.191424
    94  H    0.191425
    95  H    0.204068
    96  H    0.204085
    97  H    0.191425
    98  H    0.191426
    99  H    0.204075
   100  H    0.204080
   101  H    0.191432
   102  H    0.191431
   103  H    0.204075
   104  H    0.204081
   105  H    0.191424
   106  H    0.191426
   107  H    0.204074
   108  H    0.204081
   109  H    0.191425
   110  H    0.191421
   111  H    0.204082
   112  H    0.204084
   113  H    0.191425
   114  H    0.191423
   115  H    0.204085
   116  H    0.204068
   117  H    0.191426
   118  H    0.191425
   119  H    0.204079
   120  H    0.204075
 Sum of Mulliken charges =  -0.00000
 Mulliken charges with hydrogens summed into heavy atoms:
               1
     1  C    0.059822
     2  C    0.008672
     3  C   -0.036099
     4  C   -0.036114
     5  C    0.059790
     6  C    0.008709
     7  C   -0.032408
     8  C   -0.032365
     9  C    0.008643
    10  C    0.059846
    11  C   -0.036106
    12  C   -0.036115
    13  C    0.008662
    14  C    0.059830
    15  C   -0.032371
    16  C   -0.032362
    17  C    0.059848
    18  C    0.008602
    19  C   -0.036103
    20  C   -0.036115
    21  C    0.059826
    22  C    0.008666
    23  C   -0.032369
    24  C   -0.032353
    25  C    0.008618
    26  C    0.059859
    27  C   -0.036119
    28  C   -0.036098
    29  C    0.008644
    30  C    0.059815
    31  C   -0.032357
    32  C   -0.032381
    33  C    0.059864
    34  C    0.008625
    35  C   -0.036087
    36  C   -0.036132
    37  C    0.059818
    38  C    0.008679
    39  C   -0.032373
    40  C   -0.032413
    41  C    0.008671
    42  C    0.059824
    43  C   -0.036114
    44  C   -0.036099
    45  C    0.008707
    46  C    0.059791
    47  C   -0.032365
    48  C   -0.032408
    49  C    0.059846
    50  C    0.008641
    51  C   -0.036113
    52  C   -0.036106
    53  C    0.059828
    54  C    0.008665
    55  C   -0.032363
    56  C   -0.032371
    57  C    0.008602
    58  C    0.059849
    59  C   -0.036115
    60  C   -0.036103
    61  C    0.008665
    62  C    0.059827
    63  C   -0.032353
    64  C   -0.032368
    65  C    0.059858
    66  C    0.008618
    67  C   -0.036097
    68  C   -0.036120
    69  C    0.059813
    70  C    0.008646
    71  C   -0.032382
    72  C   -0.032357
    73  C    0.008625
    74  C    0.059865
    75  C   -0.036132
    76  C   -0.036088
    77  C    0.008677
    78  C    0.059820
    79  C   -0.032414
    80  C   -0.032371
 Electronic spatial extent (au):  <R**2>=          95013.8783
 Charge=             -0.0000 electrons
 Dipole moment (field-independent basis, Debye):
    X=             -0.0000    Y=             -0.0000    Z=             -0.0000  Tot=              0.0000
 Quadrupole moment (field-independent basis, Debye-Ang):
   XX=           -481.6815   YY=           -481.6910   ZZ=           -390.0395
   XY=             -0.0008   XZ=             -0.0062   YZ=              0.0013
 Traceless Quadrupole moment (field-independent basis, Debye-Ang):
   XX=            -30.5442   YY=            -30.5537   ZZ=             61.0979
   XY=             -0.0008   XZ=             -0.0062   YZ=              0.0013
 Octapole moment (field-independent basis, Debye-Ang**2):
  XXX=              0.0009  YYY=             -0.0007  ZZZ=             28.8043  XYY=              0.0003
  XXY=             -0.0006  XXZ=             11.8566  XZZ=              0.0005  YZZ=             -0.0002
  YYZ=             11.8571  XYZ=             -0.0001
 Hexadecapole moment (field-independent basis, Debye-Ang**3):
 XXXX=         -70184.6692 YYYY=         -70159.7327 ZZZZ=          -6622.3516 XXXY=              0.0417
 XXXZ=             -0.1547 YYYX=              0.0014 YYYZ=              0.1207 ZZZX=              0.4317
 ZZZY=             -0.0706 XXYY=         -23390.6856 XXZZ=         -10664.0507 YYZZ=         -10660.8101
 XXYZ=             -0.0642 YYXZ=              0.0703 ZZXY=             -0.0151
 N-N= 1.077861582220D+04 E-N=-2.868755091669D+04  KE= 3.060011451275D+03
 1\1\GINC-CU19\SP\RB3LYP\6-311G(d)\C80H40\WANG\27-Apr-2025\0\\# B3LYP/6
 -311G* NOSYMM\\From 10_10-CNB_opt.out\\0,1\C,0,6.736854,-1.517406,-1.2
 21891\C,0,6.860661,-0.832219,0.029979\C,0,6.918147,0.577789,-2.450473\
 C,0,6.898521,-0.778727,-2.450487\C,0,6.778002,1.32084,-1.221875\C,0,6.
 881945,0.632354,0.03\C,0,6.778266,1.400234,1.195498\C,0,6.387225,2.666
 201,-1.244754\C,0,6.039344,3.358636,-0.079271\C,0,6.34179,2.731466,1.1
 72617\C,0,6.037926,3.423807,2.40125\C,0,5.256262,4.53263,2.401222\C,0,
 5.195416,4.555811,-0.079307\C,0,4.706391,5.051505,1.17257\C,0,3.599549
 ,5.910319,1.195422\C,0,4.660251,5.116178,-1.244805\C,0,3.524683,5.9366
 63,-1.221947\C,0,2.911323,6.266315,0.029912\C,0,1.587858,6.755984,-2.4
 50564\C,0,2.871955,6.318262,-2.450583\C,0,0.837984,6.852636,-1.221929\
 C,0,1.524964,6.739044,0.029937\C,0,0.76268,6.877923,1.195455\C,0,-0.56
 2274,6.896894,-1.244756\C,0,-1.32827,6.780489,-0.07921\C,0,-0.63828,6.
 874303,1.172629\C,0,-1.390626,6.799588,2.40128\C,0,-2.686842,6.39916,2
 .401342\C,0,-2.727786,6.348267,-0.079143\C,0,-3.350395,6.036554,1.1727
 53\C,0,-4.509314,5.249405,1.195658\C,0,-3.426193,6.012547,-1.244608\C,
 0,-4.55754,5.186287,-1.22171\C,0,-5.060678,4.704942,0.030164\C,0,-5.93
 5779,3.597984,-2.450407\C,0,-5.122301,4.683679,-2.450372\C,0,-6.259614
 ,2.914737,-1.221785\C,0,-5.939129,3.532857,0.030128\C,0,-6.307149,2.85
 0857,1.195577\C,0,-6.734563,1.596758,-1.244703\C,0,-6.860661,0.832221,
 -0.079212\C,0,-6.736858,1.517409,1.172659\C,0,-6.898519,0.77873,2.4012
 54\C,0,-6.918139,-0.577787,2.401241\C,0,-6.881939,-0.632352,-0.079232\
 C,0,-6.777996,-1.320838,1.172644\C,0,-6.387219,-2.666198,1.195522\C,0,
 -6.778256,-1.400231,-1.244729\C,0,-6.341788,-2.731466,-1.221849\C,0,-6
 .039345,-3.358636,0.030039\C,0,-5.25627,-4.532635,-2.450454\C,0,-6.037
 928,-3.423809,-2.450483\C,0,-4.706398,-5.051509,-1.2218\C,0,-5.195423,
 -4.555816,0.030075\C,0,-4.660261,-5.116186,1.195573\C,0,-3.599556,-5.9
 10323,-1.244654\C,0,-2.911325,-6.266314,-0.079145\C,0,-3.524688,-5.936
 665,1.172715\C,0,-2.871958,-6.31826,2.40135\C,0,-1.587858,-6.755976,2.
 401331\C,0,-1.524965,-6.739036,-0.07917\C,0,-0.837985,-6.852628,1.1726
 98\C,0,0.562274,-6.896886,1.195523\C,0,-0.762681,-6.87791,-1.244688\C,
 0,0.63828,-6.874298,-1.221862\C,0,1.328269,-6.780489,0.029975\C,0,2.68
 6843,-6.399164,-2.450576\C,0,1.390627,-6.799586,-2.450514\C,0,3.350396
 ,-6.036557,-1.221986\C,0,2.727788,-6.348272,0.029909\C,0,3.426199,-6.0
 12558,1.195374\C,0,4.509315,-5.249408,-1.244892\C,0,5.060676,-4.704941
 ,-0.079399\C,0,4.557541,-5.186291,1.172476\C,0,5.122298,-4.683681,2.40
 1137\C,0,5.935771,-3.597981,2.401173\C,0,5.939121,-3.532853,-0.079362\
 C,0,6.259606,-2.914734,1.172554\C,0,6.734555,-1.596755,1.19547\C,0,6.3
 07137,-2.850851,-1.24481\H,0,6.959485,1.130622,-3.385884\H,0,6.92387,-
 1.332508,-3.385905\H,0,6.909623,0.935111,2.167969\H,0,6.233436,3.12436
 7,-2.217234\H,0,6.38378,2.99057,3.336673\H,0,4.964411,5.003982,3.33662
 4\H,0,3.205677,6.190408,2.167891\H,0,5.039987,4.817217,-2.217279\H,0,1
 .074725,6.96581,-3.385976\H,0,3.4064,6.171033,-3.386006\H,0,1.245664,6
 .859258,2.167908\H,0,-1.045601,6.891969,-2.217202\H,0,-0.871652,6.9946
 19,3.336669\H,0,-3.225303,6.267516,3.336787\H,0,-4.897457,4.9615,2.168
 15\H,0,-3.024501,6.281224,-2.2171\H,0,-6.294041,3.174953,-3.385832\H,0
 ,-4.816954,5.146425,-3.38576\H,0,-6.140259,3.304376,2.168076\H,0,-6.87
 922,1.135632,-2.217185\H,0,-6.923866,1.33251,3.336674\H,0,-6.959469,-1
 .130616,3.336654\H,0,-6.23342,-3.124361,2.168002\H,0,-6.909597,-0.9351
 05,-2.2172\H,0,-4.964423,-5.003994,-3.385854\H,0,-6.383785,-2.990571,-
 3.385904\H,0,-5.040008,-4.817239,2.168047\H,0,-3.205689,-6.190421,-2.2
 17123\H,0,-3.406401,-6.171031,3.336775\H,0,-1.074724,-6.965793,3.33674
 5\H,0,1.045601,-6.89195,2.167968\H,0,-1.245664,-6.859228,-2.217141\H,0
 ,3.225308,-6.267524,-3.386019\H,0,0.87165,-6.994619,-3.385903\H,0,3.02
 4516,-6.281252,2.167866\H,0,4.897463,-4.96151,-2.217384\H,0,4.816953,-
 5.146426,3.336526\H,0,6.294025,-3.174949,3.336601\H,0,6.879203,-1.1356
 26,2.167953\H,0,6.140233,-3.304363,-2.21731\\Version=ES64L-G16RevB.01\
 HF=-3073.349916\RMSD=7.846e-09\Dipole=-0.0000004,-0.0000024,-0.0000005
 \Quadrupole=-22.7088552,-22.7159111,45.4247663,-0.0005933,-0.0046282,0
 .0009379\PG=C01 [X(C80H40)]\\@


 IT IS A SIMPLE TASK TO MAKE THINGS COMPLEX,
 BUT A COMPLEX TASK TO MAKE THEM SIMPLE.
 Job cpu time:       0 days  0 hours 58 minutes 42.7 seconds.
 Elapsed time:       0 days  0 hours  3 minutes 17.2 seconds.
 File lengths (MBytes):  RWF=   1309 Int=      0 D2E=      0 Chk=    141 Scr=      1
 Normal termination of Gaussian 16 at Sun Apr 27 18:20:47 2025.
