 Entering Gaussian System, Link 0=g16
 Initial command:
 /opt/software/g16/l1.exe "/tmp/12_12-CNB-5875.tmp/Gau-60435.inp" -scrdir="/tmp/12_12-CNB-5875.tmp/"
 Entering Link 1 = /opt/software/g16/l1.exe PID=     60436.
  
 Copyright (c) 1988-2017, Gaussian, Inc.  All Rights Reserved.
  
 This is part of the Gaussian(R) 16 program.  It is based on
 the Gaussian(R) 09 system (copyright 2009, Gaussian, Inc.),
 the Gaussian(R) 03 system (copyright 2003, Gaussian, Inc.),
 the Gaussian(R) 98 system (copyright 1998, Gaussian, Inc.),
 the Gaussian(R) 94 system (copyright 1995, Gaussian, Inc.),
 the Gaussian 92(TM) system (copyright 1992, Gaussian, Inc.),
 the Gaussian 90(TM) system (copyright 1990, Gaussian, Inc.),
 the Gaussian 88(TM) system (copyright 1988, Gaussian, Inc.),
 the Gaussian 86(TM) system (copyright 1986, Carnegie Mellon
 University), and the Gaussian 82(TM) system (copyright 1983,
 Carnegie Mellon University). Gaussian is a federally registered
 trademark of Gaussian, Inc.
  
 This software contains proprietary and confidential information,
 including trade secrets, belonging to Gaussian, Inc.
  
 This software is provided under written license and may be
 used, copied, transmitted, or stored only in accord with that
 written license.
  
 The following legend is applicable only to US Government
 contracts under FAR:
  
                    RESTRICTED RIGHTS LEGEND
  
 Use, reproduction and disclosure by the US Government is
 subject to restrictions as set forth in subparagraphs (a)
 and (c) of the Commercial Computer Software - Restricted
 Rights clause in FAR 52.227-19.
  
 Gaussian, Inc.
 340 Quinnipiac St., Bldg. 40, Wallingford CT 06492
  
  
 ---------------------------------------------------------------
 Warning -- This program may not be used in any manner that
 competes with the business of Gaussian, Inc. or will provide
 assistance to any competitor of Gaussian, Inc.  The licensee
 of this program is prohibited from giving any competitor of
 Gaussian, Inc. access to this program.  By using this program,
 the user acknowledges that Gaussian, Inc. is engaged in the
 business of creating and licensing software in the field of
 computational chemistry and represents and warrants to the
 licensee that it is not a competitor of Gaussian, Inc. and that
 it will not use this program in any manner prohibited above.
 ---------------------------------------------------------------
  

 Cite this work as:
 Gaussian 16, Revision B.01,
 M. J. Frisch, G. W. Trucks, H. B. Schlegel, G. E. Scuseria, 
 M. A. Robb, J. R. Cheeseman, G. Scalmani, V. Barone, 
 G. A. Petersson, H. Nakatsuji, X. Li, M. Caricato, A. V. Marenich, 
 J. Bloino, B. G. Janesko, R. Gomperts, B. Mennucci, H. P. Hratchian, 
 J. V. Ortiz, A. F. Izmaylov, J. L. Sonnenberg, D. Williams-Young, 
 F. Ding, F. Lipparini, F. Egidi, J. Goings, B. Peng, A. Petrone, 
 T. Henderson, D. Ranasinghe, V. G. Zakrzewski, J. Gao, N. Rega, 
 G. Zheng, W. Liang, M. Hada, M. Ehara, K. Toyota, R. Fukuda, 
 J. Hasegawa, M. Ishida, T. Nakajima, Y. Honda, O. Kitao, H. Nakai, 
 T. Vreven, K. Throssell, J. A. Montgomery, Jr., J. E. Peralta, 
 F. Ogliaro, M. J. Bearpark, J. J. Heyd, E. N. Brothers, K. N. Kudin, 
 V. N. Staroverov, T. A. Keith, R. Kobayashi, J. Normand, 
 K. Raghavachari, A. P. Rendell, J. C. Burant, S. S. Iyengar, 
 J. Tomasi, M. Cossi, J. M. Millam, M. Klene, C. Adamo, R. Cammi, 
 J. W. Ochterski, R. L. Martin, K. Morokuma, O. Farkas, 
 J. B. Foresman, and D. J. Fox, Gaussian, Inc., Wallingford CT, 2016.
 
 ******************************************
 Gaussian 16:  ES64L-G16RevB.01 20-Dec-2017
                27-Apr-2025 
 ******************************************
 %nproc=18
 Will use up to   18 processors via shared memory.
 ----------------------
 # B3LYP/6-311G* NOSYMM
 ----------------------
 1/38=1,172=1/1;
 2/12=2,15=1,17=6,18=5,40=1/2;
 3/5=4,6=6,7=1,11=2,25=1,30=1,74=-5/1,2,3;
 4//1;
 5/5=2,38=5/2;
 6/7=2,8=2,9=2,10=2,28=1/1;
 99/5=1,9=1/99;
 ----------------------
 From 12_12-CNB_opt.out
 ----------------------
 Symbolic Z-matrix:
 Charge =  0 Multiplicity = 1
 6                     8.13973  -1.5198   -1.21962 
 6                     8.24275  -0.83111   0.03231 
 6                     8.29074   0.57895  -2.44838 
 6                     8.27456  -0.77765  -2.44842 
 6                     8.1737    1.32406  -1.21956 
 6                     8.26028   0.63305   0.03235 
 6                     8.17522   1.4018    1.19819 
 6                     7.84697   2.68621  -1.24126 
 6                     7.55447   3.40211  -0.07534 
 6                     7.81002   2.75413   1.17651 
 6                     7.55682   3.46443   2.40541 
 6                     6.89285   4.64756   2.40573 
 6                     6.83803   4.67913  -0.075 
 6                     6.41823   5.23429   1.17716 
 6                     5.45402   6.25038   1.19943 
 6                     6.37952   5.30257  -1.24054 
 6                     5.38692   6.29096  -1.21827 
 6                     4.84191   6.72389   0.03386 
 6                     3.64494   7.47165  -2.4466 
 6                     4.81185   6.77959  -2.44687 
 6                     2.94084   7.74175  -1.21772 
 6                     3.58245   7.47079   0.03416 
 6                     2.87374   7.78047   1.20004 
 6                     1.59763   8.13922  -1.23946 
 6                     0.83111   8.24274  -0.07366 
 6                     1.51981   8.13972   1.17827 
 6                     0.77765   8.27457   2.40706 
 6                    -0.57895   8.29075   2.40703 
 6                    -0.63305   8.26028  -0.0737 
 6                    -1.32407   8.1737    1.17821 
 6                    -2.68621   7.84698   1.19991 
 6                    -1.4018    8.17522  -1.23954 
 6                    -2.75414   7.81001  -1.21785 
 6                    -3.40211   7.55447   0.03399 
 6                    -4.64756   6.89284  -2.44708 
 6                    -3.46443   7.55681  -2.44677 
 6                    -5.23428   6.41823  -1.2185 
 6                    -4.67913   6.83802   0.03364 
 6                    -5.30258   6.37951   1.19919 
 6                    -6.25038   5.45401  -1.24078 
 6                    -6.72389   4.84191  -0.07521 
 6                    -6.29097   5.38693   1.17692 
 6                    -6.77961   4.81186   2.40552 
 6                    -7.47167   3.64495   2.40524 
 6                    -7.47081   3.58246  -0.07552 
 6                    -7.74177   2.94084   1.17637 
 6                    -8.13923   1.59764   1.19812 
 6                    -7.78048   2.87375  -1.24139 
 6                    -8.13973   1.5198   -1.21962 
 6                    -8.24275   0.83111   0.03231 
 6                    -8.29074  -0.57895  -2.44838 
 6                    -8.27456   0.77765  -2.44842 
 6                    -8.1737   -1.32406  -1.21956 
 6                    -8.26028  -0.63305   0.03235 
 6                    -8.17522  -1.4018    1.19819 
 6                    -7.84697  -2.68621  -1.24125 
 6                    -7.55447  -3.40211  -0.07534 
 6                    -7.81002  -2.75413   1.17651 
 6                    -7.55682  -3.46443   2.40541 
 6                    -6.89285  -4.64756   2.40573 
 6                    -6.83802  -4.67913  -0.075 
 6                    -6.41823  -5.23429   1.17716 
 6                    -5.45402  -6.25038   1.19943 
 6                    -6.37952  -5.30257  -1.24054 
 6                    -5.38692  -6.29096  -1.21827 
 6                    -4.84191  -6.72388   0.03386 
 6                    -3.64494  -7.47164  -2.4466 
 6                    -4.81185  -6.77959  -2.44687 
 6                    -2.94084  -7.74175  -1.21772 
 6                    -3.58245  -7.47079   0.03416 
 6                    -2.87374  -7.78046   1.20004 
 6                    -1.59763  -8.13922  -1.23946 
 6                    -0.8311   -8.24274  -0.07366 
 6                    -1.51981  -8.13972   1.17827 
 6                    -0.77765  -8.27456   2.40706 
 6                     0.57895  -8.29075   2.40703 
 6                     0.63305  -8.26028  -0.0737 
 6                     1.32407  -8.1737    1.17821 
 6                     2.68621  -7.84698   1.19991 
 6                     1.4018   -8.17522  -1.23954 
 6                     2.75414  -7.81001  -1.21785 
 6                     3.40211  -7.55447   0.03399 
 6                     4.64756  -6.89284  -2.44708 
 6                     3.46443  -7.55681  -2.44677 
 6                     5.23428  -6.41823  -1.2185 
 6                     4.67913  -6.83802   0.03364 
 6                     5.30258  -6.37951   1.19919 
 6                     6.25038  -5.45401  -1.24078 
 6                     6.72389  -4.84191  -0.07521 
 6                     6.29097  -5.38693   1.17692 
 6                     6.77961  -4.81186   2.40552 
 6                     7.47167  -3.64495   2.40524 
 6                     7.47081  -3.58246  -0.07552 
 6                     7.74177  -2.94084   1.17637 
 6                     8.13923  -1.59764   1.19811 
 6                     7.78048  -2.87375  -1.24139 
 1                     8.32473   1.13142  -3.3843 
 1                     8.29539  -1.33073  -3.38436 
 1                     8.28565   0.93093   2.17037 
 1                     7.7179    3.15229  -2.21345 
 1                     7.85186   2.99584   3.3412 
 1                     6.64674   5.14311   3.34177 
 1                     5.10964   6.58935   2.17182 
 1                     6.71024   4.95028  -2.21294 
 1                     3.18356   7.77783  -3.38239 
 1                     5.30146   6.52174  -3.38288 
 1                     3.33658   7.64033   2.17225 
 1                     1.12957   8.26079  -2.21168 
 1                     1.33071   8.29541   3.34302 
 1                    -1.1314    8.32475   3.34296 
 1                    -3.1523    7.7179    2.1721 
 1                    -0.93094   8.28567  -2.21173 
 1                    -5.14312   6.6467   -3.38312 
 1                    -2.99582   7.85185  -3.38254 
 1                    -4.95027   6.71022   2.17159 
 1                    -6.58934   5.10963  -2.21318 
 1                    -6.52177   5.30146   3.34154 
 1                    -7.77786   3.18359   3.34104 
 1                    -8.26081   1.12957   2.17032 
 1                    -7.64036   3.33659  -2.2136 
 1                    -8.32473  -1.13142  -3.3843 
 1                    -8.29539   1.33073  -3.38436 
 1                    -8.28565  -0.93093   2.17037 
 1                    -7.7179   -3.15229  -2.21345 
 1                    -7.85186  -2.99584   3.3412 
 1                    -6.64674  -5.14311   3.34177 
 1                    -5.10963  -6.58934   2.17182 
 1                    -6.71024  -4.95028  -2.21294 
 1                    -3.18356  -7.77783  -3.38239 
 1                    -5.30146  -6.52174  -3.38288 
 1                    -3.33658  -7.64033   2.17225 
 1                    -1.12957  -8.26079  -2.21167 
 1                    -1.33071  -8.2954    3.34302 
 1                     1.13141  -8.32475   3.34296 
 1                     3.1523   -7.7179    2.1721 
 1                     0.93094  -8.28567  -2.21173 
 1                     5.14312  -6.6467   -3.38312 
 1                     2.99582  -7.85185  -3.38254 
 1                     4.95027  -6.71022   2.17159 
 1                     6.58934  -5.10963  -2.21318 
 1                     6.52177  -5.30146   3.34154 
 1                     7.77786  -3.18359   3.34104 
 1                     8.26081  -1.12957   2.17032 
 1                     7.64036  -3.33659  -2.2136 
 
 Symmetry turned off by external request.
 This structure is nearly, but not quite of a higher symmetry.
 Consider Symm=Loose if the higher symmetry is desired.
 Stoichiometry    C96H48
 Framework group  C1[X(C96H48)]
 Deg. of freedom   426
 Full point group                 C1      NOp   1
                          Input orientation:                          
 ---------------------------------------------------------------------
 Center     Atomic      Atomic             Coordinates (Angstroms)
 Number     Number       Type             X           Y           Z
 ---------------------------------------------------------------------
      1          6           0        8.139727   -1.519802   -1.219621
      2          6           0        8.242747   -0.831107    0.032308
      3          6           0        8.290740    0.578947   -2.448382
      4          6           0        8.274562   -0.777654   -2.448417
      5          6           0        8.173700    1.324056   -1.219556
      6          6           0        8.260277    0.633046    0.032348
      7          6           0        8.175223    1.401797    1.198187
      8          6           0        7.846974    2.686209   -1.241256
      9          6           0        7.554469    3.402106   -0.075344
     10          6           0        7.810022    2.754131    1.176505
     11          6           0        7.556816    3.464435    2.405413
     12          6           0        6.892854    4.647560    2.405725
     13          6           0        6.838025    4.679132   -0.074998
     14          6           0        6.418231    5.234288    1.177156
     15          6           0        5.454018    6.250379    1.199427
     16          6           0        6.379520    5.302573   -1.240543
     17          6           0        5.386919    6.290965   -1.218273
     18          6           0        4.841909    6.723885    0.033857
     19          6           0        3.644939    7.471645   -2.446598
     20          6           0        4.811849    6.779589   -2.446871
     21          6           0        2.940843    7.741753   -1.217717
     22          6           0        3.582454    7.470795    0.034159
     23          6           0        2.873740    7.780465    1.200037
     24          6           0        1.597634    8.139216   -1.239464
     25          6           0        0.831105    8.242738   -0.073664
     26          6           0        1.519808    8.139719    1.178273
     27          6           0        0.777652    8.274565    2.407061
     28          6           0       -0.578950    8.290748    2.407027
     29          6           0       -0.633049    8.260276   -0.073704
     30          6           0       -1.324067    8.173702    1.178208
     31          6           0       -2.686211    7.846981    1.199906
     32          6           0       -1.401797    8.175225   -1.239537
     33          6           0       -2.754140    7.810015   -1.217853
     34          6           0       -3.402108    7.554467    0.033987
     35          6           0       -4.647555    6.892839   -2.447081
     36          6           0       -3.464431    7.556805   -2.446768
     37          6           0       -5.234279    6.418228   -1.218504
     38          6           0       -4.679131    6.838021    0.033641
     39          6           0       -5.302577    6.379514    1.199193
     40          6           0       -6.250379    5.454009   -1.240777
     41          6           0       -6.723891    4.841909   -0.075214
     42          6           0       -6.290968    5.386927    1.176924
     43          6           0       -6.779607    4.811858    2.405515
     44          6           0       -7.471667    3.644950    2.405242
     45          6           0       -7.470807    3.582457   -0.075516
     46          6           0       -7.741773    2.940842    1.176370
     47          6           0       -8.139233    1.597643    1.198115
     48          6           0       -7.780478    2.873747   -1.241386
     49          6           0       -8.139726    1.519803   -1.219620
     50          6           0       -8.242746    0.831108    0.032309
     51          6           0       -8.290740   -0.578947   -2.448381
     52          6           0       -8.274562    0.777654   -2.448416
     53          6           0       -8.173699   -1.324055   -1.219555
     54          6           0       -8.260276   -0.633045    0.032349
     55          6           0       -8.175222   -1.401796    1.198188
     56          6           0       -7.846973   -2.686208   -1.241255
     57          6           0       -7.554468   -3.402105   -0.075342
     58          6           0       -7.810021   -2.754130    1.176506
     59          6           0       -7.556815   -3.464434    2.405414
     60          6           0       -6.892853   -4.647559    2.405727
     61          6           0       -6.838024   -4.679131   -0.074996
     62          6           0       -6.418230   -5.234287    1.177158
     63          6           0       -5.454017   -6.250378    1.199428
     64          6           0       -6.379520   -5.302573   -1.240541
     65          6           0       -5.386918   -6.290965   -1.218272
     66          6           0       -4.841908   -6.723884    0.033858
     67          6           0       -3.644939   -7.471644   -2.446596
     68          6           0       -4.811849   -6.779589   -2.446869
     69          6           0       -2.940842   -7.741753   -1.217716
     70          6           0       -3.582453   -7.470794    0.034161
     71          6           0       -2.873739   -7.780464    1.200038
     72          6           0       -1.597633   -8.139216   -1.239462
     73          6           0       -0.831104   -8.242738   -0.073663
     74          6           0       -1.519807   -8.139718    1.178274
     75          6           0       -0.777651   -8.274563    2.407062
     76          6           0        0.578951   -8.290747    2.407028
     77          6           0        0.633050   -8.260275   -0.073703
     78          6           0        1.324068   -8.173702    1.178209
     79          6           0        2.686211   -7.846980    1.199907
     80          6           0        1.401798   -8.175224   -1.239536
     81          6           0        2.754140   -7.810015   -1.217853
     82          6           0        3.402109   -7.554467    0.033987
     83          6           0        4.647555   -6.892839   -2.447081
     84          6           0        3.464431   -7.556805   -2.446768
     85          6           0        5.234280   -6.418227   -1.218504
     86          6           0        4.679132   -6.838020    0.033642
     87          6           0        5.302578   -6.379514    1.199193
     88          6           0        6.250379   -5.454008   -1.240777
     89          6           0        6.723891   -4.841909   -0.075214
     90          6           0        6.290969   -5.386926    1.176924
     91          6           0        6.779608   -4.811857    2.405515
     92          6           0        7.471668   -3.644949    2.405242
     93          6           0        7.470808   -3.582457   -0.075516
     94          6           0        7.741774   -2.940841    1.176369
     95          6           0        8.139234   -1.597642    1.198114
     96          6           0        7.780478   -2.873747   -1.241387
     97          1           0        8.324733    1.131420   -3.384301
     98          1           0        8.295394   -1.330733   -3.384362
     99          1           0        8.285652    0.930926    2.170374
    100          1           0        7.717901    3.152287   -2.213451
    101          1           0        7.851859    2.995839    3.341196
    102          1           0        6.646738    5.143115    3.341771
    103          1           0        5.109636    6.589346    2.171822
    104          1           0        6.710236    4.950281   -2.212945
    105          1           0        3.183559    7.777832   -3.382388
    106          1           0        5.301458    6.521735   -3.382884
    107          1           0        3.336584    7.640332    2.172246
    108          1           0        1.129571    8.260788   -2.211675
    109          1           0        1.330714    8.295405    3.343016
    110          1           0       -1.131405    8.324753    3.342956
    111          1           0       -3.152298    7.717903    2.172096
    112          1           0       -0.930937    8.285669   -2.211727
    113          1           0       -5.143118    6.646705   -3.383116
    114          1           0       -2.995815    7.851846   -3.382542
    115          1           0       -4.950268    6.710224    2.171591
    116          1           0       -6.589339    5.109634   -2.213177
    117          1           0       -6.521771    5.301458    3.341538
    118          1           0       -7.777858    3.183592    3.341042
    119          1           0       -8.260807    1.129570    2.170321
    120          1           0       -7.640364    3.336590   -2.213599
    121          1           0       -8.324733   -1.131419   -3.384299
    122          1           0       -8.295394    1.330733   -3.384361
    123          1           0       -8.285651   -0.930925    2.170375
    124          1           0       -7.717900   -3.152286   -2.213449
    125          1           0       -7.851858   -2.995838    3.341198
    126          1           0       -6.646737   -5.143114    3.341772
    127          1           0       -5.109635   -6.589345    2.171824
    128          1           0       -6.710236   -4.950280   -2.212943
    129          1           0       -3.183559   -7.777832   -3.382386
    130          1           0       -5.301458   -6.521735   -3.382883
    131          1           0       -3.336583   -7.640331    2.172248
    132          1           0       -1.129571   -8.260788   -2.211673
    133          1           0       -1.330713   -8.295404    3.343018
    134          1           0        1.131406   -8.324751    3.342957
    135          1           0        3.152299   -7.717902    2.172097
    136          1           0        0.930937   -8.285668   -2.211726
    137          1           0        5.143118   -6.646704   -3.383116
    138          1           0        2.995815   -7.851846   -3.382541
    139          1           0        4.950269   -6.710223    2.171592
    140          1           0        6.589339   -5.109634   -2.213178
    141          1           0        6.521772   -5.301457    3.341538
    142          1           0        7.777859   -3.183591    3.341042
    143          1           0        8.260808   -1.129569    2.170320
    144          1           0        7.640364   -3.336590   -2.213600
 ---------------------------------------------------------------------
 Rotational constants (GHZ):           0.0114233           0.0114233           0.0061165
 Standard basis: 6-311G(d) (5D, 7F)
  1872 basis functions,  3312 primitive gaussians,  1968 cartesian basis functions
   312 alpha electrons      312 beta electrons
       nuclear repulsion energy     13678.6859507974 Hartrees.
 NAtoms=  144 NActive=  144 NUniq=  144 SFac= 1.00D+00 NAtFMM=   60 NAOKFM=T Big=T
 Integral buffers will be    131072 words long.
 Raffenetti 2 integral format.
 Two-electron integral symmetry is turned off.
 One-electron integrals computed using PRISM.
 NBasis=  1872 RedAO= T EigKep=  3.47D-05  NBF=  1872
 NBsUse=  1872 1.00D-06 EigRej= -1.00D+00 NBFU=  1872
 ExpMin= 1.03D-01 ExpMax= 4.56D+03 ExpMxC= 6.82D+02 IAcc=3 IRadAn=         5 AccDes= 0.00D+00
 Harris functional with IExCor=  402 and IRadAn=       5 diagonalized for initial guess.
 HarFok:  IExCor=  402 AccDes= 0.00D+00 IRadAn=         5 IDoV= 1 UseB2=F ITyADJ=14
 ICtDFT=  3500011 ScaDFX=  1.000000  1.000000  1.000000  1.000000
 FoFCou: FMM=F IPFlag=           0 FMFlag=      100000 FMFlg1=        2001
         NFxFlg=           0 DoJE=T BraDBF=F KetDBF=T FulRan=T
         wScrn=  0.000000 ICntrl=       500 IOpCl=  0 I1Cent=   200000004 NGrid=           0
         NMat0=    1 NMatS0=      1 NMatT0=    0 NMatD0=    1 NMtDS0=    0 NMtDT0=    0
 Symmetry not used in FoFCou.
 Requested convergence on RMS density matrix=1.00D-08 within 128 cycles.
 Requested convergence on MAX density matrix=1.00D-06.
 Requested convergence on             energy=1.00D-06.
 No special actions if energy rises.
 Integral accuracy reduced to 1.0D-05 until final iterations.
 Rare condition: small coef for last iteration:  0.000D+00
 EnCoef did   100 forward-backward iterations
 EnCoef did   100 forward-backward iterations
 Rare condition: small coef for last iteration:  0.293D-15
 Rare condition: small coef for last iteration:  0.000D+00
 Rare condition: small coef for last iteration:  0.000D+00
 Initial convergence to 1.0D-05 achieved.  Increase integral accuracy.
 SCF Done:  E(RB3LYP) =  -3688.06033924     A.U. after   19 cycles
            NFock= 19  Conv=0.83D-08     -V/T= 2.0044
 Hyperfine terms turned off by default for NAtoms > 100.

 **********************************************************************

            Population analysis using the SCF Density.

 **********************************************************************

 Alpha  occ. eigenvalues --  -10.19495 -10.19495 -10.19495 -10.19495 -10.19494
 Alpha  occ. eigenvalues --  -10.19494 -10.19494 -10.19494 -10.19493 -10.19493
 Alpha  occ. eigenvalues --  -10.19493 -10.19493 -10.19463 -10.19463 -10.19463
 Alpha  occ. eigenvalues --  -10.19462 -10.19462 -10.19462 -10.19462 -10.19462
 Alpha  occ. eigenvalues --  -10.19461 -10.19461 -10.19461 -10.19461 -10.19217
 Alpha  occ. eigenvalues --  -10.19217 -10.19217 -10.19217 -10.19216 -10.19216
 Alpha  occ. eigenvalues --  -10.19216 -10.19216 -10.19216 -10.19216 -10.19216
 Alpha  occ. eigenvalues --  -10.19216 -10.19216 -10.19215 -10.19215 -10.19215
 Alpha  occ. eigenvalues --  -10.19215 -10.19215 -10.19215 -10.19215 -10.19215
 Alpha  occ. eigenvalues --  -10.19214 -10.19214 -10.19214 -10.18301 -10.18301
 Alpha  occ. eigenvalues --  -10.18301 -10.18301 -10.18301 -10.18301 -10.18301
 Alpha  occ. eigenvalues --  -10.18301 -10.18300 -10.18300 -10.18300 -10.18300
 Alpha  occ. eigenvalues --  -10.18300 -10.18300 -10.18300 -10.18299 -10.18299
 Alpha  occ. eigenvalues --  -10.18299 -10.18299 -10.18299 -10.18299 -10.18299
 Alpha  occ. eigenvalues --  -10.18299 -10.18299 -10.18290 -10.18290 -10.18290
 Alpha  occ. eigenvalues --  -10.18290 -10.18290 -10.18290 -10.18290 -10.18290
 Alpha  occ. eigenvalues --  -10.18290 -10.18290 -10.18290 -10.18290 -10.18221
 Alpha  occ. eigenvalues --  -10.18221 -10.18221 -10.18221 -10.18221 -10.18221
 Alpha  occ. eigenvalues --  -10.18221 -10.18221 -10.18221 -10.18221 -10.18221
 Alpha  occ. eigenvalues --  -10.18221  -0.90328  -0.90181  -0.90181  -0.89743
 Alpha  occ. eigenvalues --   -0.89743  -0.89021  -0.89021  -0.88033  -0.88033
 Alpha  occ. eigenvalues --   -0.86811  -0.86811  -0.85563  -0.85253  -0.83977
 Alpha  occ. eigenvalues --   -0.83977  -0.82726  -0.82726  -0.81662  -0.81662
 Alpha  occ. eigenvalues --   -0.80640  -0.80640  -0.80361  -0.79992  -0.79992
 Alpha  occ. eigenvalues --   -0.79595  -0.79595  -0.78904  -0.78845  -0.78845
 Alpha  occ. eigenvalues --   -0.77323  -0.77001  -0.77001  -0.76536  -0.76536
 Alpha  occ. eigenvalues --   -0.75344  -0.75344  -0.74472  -0.74472  -0.73713
 Alpha  occ. eigenvalues --   -0.73713  -0.72345  -0.72345  -0.72117  -0.72117
 Alpha  occ. eigenvalues --   -0.71180  -0.71180  -0.70660  -0.70442  -0.67478
 Alpha  occ. eigenvalues --   -0.65949  -0.65949  -0.65747  -0.65240  -0.65240
 Alpha  occ. eigenvalues --   -0.64187  -0.64187  -0.64161  -0.64161  -0.63465
 Alpha  occ. eigenvalues --   -0.63465  -0.62798  -0.62446  -0.62446  -0.61612
 Alpha  occ. eigenvalues --   -0.61611  -0.61134  -0.61133  -0.60086  -0.60086
 Alpha  occ. eigenvalues --   -0.58708  -0.58708  -0.57950  -0.57811  -0.57811
 Alpha  occ. eigenvalues --   -0.57257  -0.57257  -0.56530  -0.56438  -0.56437
 Alpha  occ. eigenvalues --   -0.54036  -0.54019  -0.54019  -0.53541  -0.53089
 Alpha  occ. eigenvalues --   -0.53089  -0.52933  -0.52933  -0.51470  -0.51470
 Alpha  occ. eigenvalues --   -0.51217  -0.51217  -0.51047  -0.51047  -0.50307
 Alpha  occ. eigenvalues --   -0.50303  -0.50303  -0.48329  -0.48329  -0.48104
 Alpha  occ. eigenvalues --   -0.47720  -0.47720  -0.47626  -0.47626  -0.47297
 Alpha  occ. eigenvalues --   -0.47296  -0.46487  -0.46487  -0.46344  -0.46344
 Alpha  occ. eigenvalues --   -0.45861  -0.45103  -0.45103  -0.45088  -0.45088
 Alpha  occ. eigenvalues --   -0.44594  -0.44165  -0.44074  -0.44074  -0.43802
 Alpha  occ. eigenvalues --   -0.43802  -0.43587  -0.43583  -0.43582  -0.43420
 Alpha  occ. eigenvalues --   -0.43420  -0.43281  -0.43280  -0.43128  -0.43128
 Alpha  occ. eigenvalues --   -0.42590  -0.42430  -0.42430  -0.42219  -0.42219
 Alpha  occ. eigenvalues --   -0.41863  -0.41862  -0.41760  -0.41739  -0.41159
 Alpha  occ. eigenvalues --   -0.41159  -0.41016  -0.41016  -0.40984  -0.40983
 Alpha  occ. eigenvalues --   -0.40956  -0.40333  -0.40333  -0.40325  -0.40325
 Alpha  occ. eigenvalues --   -0.39936  -0.39936  -0.39847  -0.39847  -0.39392
 Alpha  occ. eigenvalues --   -0.39392  -0.39056  -0.37605  -0.37605  -0.37404
 Alpha  occ. eigenvalues --   -0.37403  -0.37292  -0.36680  -0.36680  -0.36395
 Alpha  occ. eigenvalues --   -0.35843  -0.35824  -0.35824  -0.35523  -0.35523
 Alpha  occ. eigenvalues --   -0.34593  -0.34593  -0.34569  -0.34569  -0.34351
 Alpha  occ. eigenvalues --   -0.34351  -0.33851  -0.33851  -0.33667  -0.33666
 Alpha  occ. eigenvalues --   -0.33623  -0.33096  -0.33096  -0.32673  -0.32673
 Alpha  occ. eigenvalues --   -0.32472  -0.32405  -0.32405  -0.31719  -0.31347
 Alpha  occ. eigenvalues --   -0.31347  -0.31122  -0.31122  -0.30114  -0.30114
 Alpha  occ. eigenvalues --   -0.29363  -0.29363  -0.29086  -0.28038  -0.26900
 Alpha  occ. eigenvalues --   -0.26900  -0.26867  -0.26867  -0.25401  -0.25401
 Alpha  occ. eigenvalues --   -0.23587  -0.23586  -0.23140  -0.23140  -0.21525
 Alpha  occ. eigenvalues --   -0.21524  -0.21219  -0.21219  -0.20216  -0.20216
 Alpha  occ. eigenvalues --   -0.20006  -0.19689
 Alpha virt. eigenvalues --   -0.08292  -0.07684  -0.07168  -0.07168  -0.07043
 Alpha virt. eigenvalues --   -0.07043  -0.05919  -0.05918  -0.04652  -0.04651
 Alpha virt. eigenvalues --   -0.04521  -0.04521  -0.02031  -0.02031  -0.01186
 Alpha virt. eigenvalues --   -0.01186  -0.00697  -0.00670  -0.00670   0.01795
 Alpha virt. eigenvalues --    0.01796   0.02553   0.03028   0.03028   0.03394
 Alpha virt. eigenvalues --    0.03545   0.03545   0.03610   0.03610   0.04059
 Alpha virt. eigenvalues --    0.04059   0.04161   0.04162   0.04175   0.04466
 Alpha virt. eigenvalues --    0.04587   0.04587   0.04765   0.04765   0.04976
 Alpha virt. eigenvalues --    0.04977   0.05652   0.05652   0.06283   0.06283
 Alpha virt. eigenvalues --    0.06577   0.06577   0.06839   0.06840   0.07583
 Alpha virt. eigenvalues --    0.07584   0.07695   0.07695   0.08210   0.08210
 Alpha virt. eigenvalues --    0.08613   0.09162   0.09341   0.09341   0.09633
 Alpha virt. eigenvalues --    0.10258   0.10586   0.10586   0.11262   0.11647
 Alpha virt. eigenvalues --    0.11647   0.11788   0.11788   0.12498   0.12710
 Alpha virt. eigenvalues --    0.12710   0.12720   0.12720   0.13655   0.13655
 Alpha virt. eigenvalues --    0.14542   0.14543   0.15676   0.15676   0.17359
 Alpha virt. eigenvalues --    0.17360   0.17766   0.17767   0.17876   0.17933
 Alpha virt. eigenvalues --    0.17933   0.17986   0.17986   0.18421   0.18421
 Alpha virt. eigenvalues --    0.18461   0.19053   0.19057   0.19626   0.19626
 Alpha virt. eigenvalues --    0.19932   0.21922   0.21922   0.22236   0.22236
 Alpha virt. eigenvalues --    0.22324   0.22325   0.22423   0.22423   0.22713
 Alpha virt. eigenvalues --    0.22736   0.22736   0.22929   0.23460   0.23586
 Alpha virt. eigenvalues --    0.23587   0.24023   0.24024   0.24088   0.24530
 Alpha virt. eigenvalues --    0.24530   0.24860   0.24860   0.24880   0.24881
 Alpha virt. eigenvalues --    0.25503   0.25503   0.26468   0.26716   0.26717
 Alpha virt. eigenvalues --    0.26729   0.26729   0.27082   0.27082   0.27347
 Alpha virt. eigenvalues --    0.27348   0.27440   0.27441   0.27702   0.27735
 Alpha virt. eigenvalues --    0.27735   0.27873   0.27920   0.29228   0.29228
 Alpha virt. eigenvalues --    0.29416   0.29417   0.29788   0.29788   0.30097
 Alpha virt. eigenvalues --    0.30098   0.30348   0.30348   0.30803   0.30803
 Alpha virt. eigenvalues --    0.31127   0.31127   0.31399   0.31410   0.31410
 Alpha virt. eigenvalues --    0.32611   0.33193   0.33194   0.33613   0.33613
 Alpha virt. eigenvalues --    0.33620   0.34221   0.34221   0.34306   0.35148
 Alpha virt. eigenvalues --    0.35148   0.35647   0.35697   0.35698   0.35786
 Alpha virt. eigenvalues --    0.35786   0.36086   0.36136   0.36136   0.36355
 Alpha virt. eigenvalues --    0.36356   0.36389   0.36390   0.36647   0.36647
 Alpha virt. eigenvalues --    0.36704   0.36807   0.36807   0.37047   0.37047
 Alpha virt. eigenvalues --    0.37525   0.37525   0.37620   0.37620   0.37820
 Alpha virt. eigenvalues --    0.37820   0.37872   0.37872   0.38003   0.38228
 Alpha virt. eigenvalues --    0.38228   0.38357   0.38357   0.38428   0.38429
 Alpha virt. eigenvalues --    0.39040   0.39191   0.39191   0.39258   0.39326
 Alpha virt. eigenvalues --    0.39326   0.39642   0.39678   0.39679   0.40101
 Alpha virt. eigenvalues --    0.40101   0.40330   0.40331   0.40513   0.40513
 Alpha virt. eigenvalues --    0.40561   0.40637   0.41050   0.41050   0.41057
 Alpha virt. eigenvalues --    0.41058   0.41232   0.41232   0.41404   0.41404
 Alpha virt. eigenvalues --    0.41645   0.42111   0.42113   0.42358   0.42358
 Alpha virt. eigenvalues --    0.42381   0.42550   0.42550   0.42667   0.42667
 Alpha virt. eigenvalues --    0.42911   0.42912   0.42982   0.42996   0.42996
 Alpha virt. eigenvalues --    0.43298   0.43298   0.43322   0.43322   0.43437
 Alpha virt. eigenvalues --    0.43437   0.43881   0.44109   0.44514   0.44636
 Alpha virt. eigenvalues --    0.44636   0.44969   0.44969   0.45044   0.45044
 Alpha virt. eigenvalues --    0.45068   0.45068   0.45109   0.45109   0.45165
 Alpha virt. eigenvalues --    0.45166   0.45239   0.45485   0.45485   0.45534
 Alpha virt. eigenvalues --    0.45534   0.45840   0.46054   0.46054   0.46131
 Alpha virt. eigenvalues --    0.46131   0.46403   0.46403   0.46423   0.46424
 Alpha virt. eigenvalues --    0.46454   0.46596   0.46597   0.47263   0.47263
 Alpha virt. eigenvalues --    0.47336   0.47336   0.47500   0.47535   0.47535
 Alpha virt. eigenvalues --    0.47554   0.47922   0.48089   0.48235   0.48236
 Alpha virt. eigenvalues --    0.48306   0.48430   0.48431   0.48606   0.48606
 Alpha virt. eigenvalues --    0.48650   0.48650   0.48863   0.48863   0.49086
 Alpha virt. eigenvalues --    0.49086   0.49190   0.49190   0.49787   0.49788
 Alpha virt. eigenvalues --    0.49814   0.49814   0.50212   0.50834   0.50834
 Alpha virt. eigenvalues --    0.50893   0.50893   0.51069   0.51071   0.51232
 Alpha virt. eigenvalues --    0.51232   0.51671   0.51673   0.52104   0.52397
 Alpha virt. eigenvalues --    0.52397   0.52506   0.52506   0.52654   0.52723
 Alpha virt. eigenvalues --    0.52727   0.53047   0.53416   0.53423   0.53423
 Alpha virt. eigenvalues --    0.53611   0.53611   0.53915   0.53915   0.54775
 Alpha virt. eigenvalues --    0.54775   0.55189   0.55189   0.55492   0.55507
 Alpha virt. eigenvalues --    0.55507   0.55572   0.55572   0.55738   0.55740
 Alpha virt. eigenvalues --    0.58105   0.58151   0.58151   0.58536   0.58537
 Alpha virt. eigenvalues --    0.58726   0.58726   0.59003   0.59003   0.59065
 Alpha virt. eigenvalues --    0.59116   0.59116   0.59464   0.59464   0.59694
 Alpha virt. eigenvalues --    0.59813   0.59816   0.59972   0.60079   0.60079
 Alpha virt. eigenvalues --    0.60645   0.60645   0.60832   0.60832   0.60909
 Alpha virt. eigenvalues --    0.60910   0.61109   0.61842   0.62068   0.62068
 Alpha virt. eigenvalues --    0.62308   0.62310   0.62649   0.62649   0.63143
 Alpha virt. eigenvalues --    0.63143   0.63552   0.63654   0.63656   0.64164
 Alpha virt. eigenvalues --    0.64279   0.64279   0.64630   0.64689   0.64689
 Alpha virt. eigenvalues --    0.64706   0.64707   0.64779   0.64780   0.65621
 Alpha virt. eigenvalues --    0.65621   0.66172   0.66172   0.66607   0.67011
 Alpha virt. eigenvalues --    0.67013   0.67623   0.67626   0.67970   0.67970
 Alpha virt. eigenvalues --    0.68372   0.68375   0.68375   0.68819   0.68820
 Alpha virt. eigenvalues --    0.69182   0.69182   0.69249   0.69249   0.70375
 Alpha virt. eigenvalues --    0.70531   0.70533   0.71189   0.71189   0.71479
 Alpha virt. eigenvalues --    0.71479   0.71912   0.71914   0.71965   0.71966
 Alpha virt. eigenvalues --    0.72175   0.72788   0.73055   0.73055   0.73071
 Alpha virt. eigenvalues --    0.73071   0.73141   0.74351   0.74351   0.74622
 Alpha virt. eigenvalues --    0.74777   0.74779   0.74882   0.75017   0.75017
 Alpha virt. eigenvalues --    0.75402   0.75402   0.75460   0.75462   0.76506
 Alpha virt. eigenvalues --    0.76506   0.76682   0.76683   0.77643   0.77644
 Alpha virt. eigenvalues --    0.77683   0.77683   0.77880   0.77882   0.78611
 Alpha virt. eigenvalues --    0.78640   0.78640   0.78744   0.78744   0.79013
 Alpha virt. eigenvalues --    0.79013   0.79145   0.79416   0.79417   0.79636
 Alpha virt. eigenvalues --    0.79677   0.79677   0.79883   0.79898   0.79898
 Alpha virt. eigenvalues --    0.80258   0.80757   0.80757   0.80878   0.80881
 Alpha virt. eigenvalues --    0.80929   0.80932   0.82601   0.82605   0.82605
 Alpha virt. eigenvalues --    0.82606   0.82793   0.82793   0.82809   0.82809
 Alpha virt. eigenvalues --    0.82962   0.82962   0.83153   0.83251   0.83251
 Alpha virt. eigenvalues --    0.83500   0.83502   0.83757   0.84110   0.84111
 Alpha virt. eigenvalues --    0.84374   0.84406   0.84406   0.84900   0.85028
 Alpha virt. eigenvalues --    0.85028   0.85117   0.85124   0.85216   0.85622
 Alpha virt. eigenvalues --    0.85815   0.85815   0.86196   0.86516   0.86519
 Alpha virt. eigenvalues --    0.86922   0.86922   0.87394   0.87398   0.87426
 Alpha virt. eigenvalues --    0.87484   0.87491   0.87589   0.87589   0.88037
 Alpha virt. eigenvalues --    0.88037   0.88360   0.88360   0.89319   0.89319
 Alpha virt. eigenvalues --    0.89680   0.89680   0.89956   0.89959   0.90120
 Alpha virt. eigenvalues --    0.90121   0.90304   0.91090   0.91091   0.91172
 Alpha virt. eigenvalues --    0.91186   0.91783   0.91942   0.91942   0.92549
 Alpha virt. eigenvalues --    0.92752   0.92753   0.92978   0.92978   0.93162
 Alpha virt. eigenvalues --    0.93162   0.93723   0.94446   0.94446   0.94729
 Alpha virt. eigenvalues --    0.95196   0.95196   0.96007   0.96007   0.96673
 Alpha virt. eigenvalues --    0.96677   0.96838   0.97255   0.97255   0.98595
 Alpha virt. eigenvalues --    0.98595   0.98721   0.98721   0.99391   0.99467
 Alpha virt. eigenvalues --    0.99467   1.00005   1.00270   1.00272   1.00677
 Alpha virt. eigenvalues --    1.00677   1.00903   1.00910   1.01210   1.01545
 Alpha virt. eigenvalues --    1.01545   1.02618   1.02809   1.02809   1.02840
 Alpha virt. eigenvalues --    1.02840   1.03035   1.03380   1.03380   1.03720
 Alpha virt. eigenvalues --    1.04086   1.04086   1.04263   1.04271   1.04543
 Alpha virt. eigenvalues --    1.04543   1.06968   1.06974   1.07059   1.07059
 Alpha virt. eigenvalues --    1.07114   1.07121   1.07447   1.07749   1.07749
 Alpha virt. eigenvalues --    1.08838   1.08841   1.09025   1.09025   1.10070
 Alpha virt. eigenvalues --    1.10070   1.10127   1.10129   1.10160   1.10628
 Alpha virt. eigenvalues --    1.10628   1.10675   1.11679   1.11679   1.11825
 Alpha virt. eigenvalues --    1.11829   1.11844   1.12461   1.12461   1.14340
 Alpha virt. eigenvalues --    1.14341   1.15058   1.15059   1.15073   1.15073
 Alpha virt. eigenvalues --    1.15436   1.15441   1.15541   1.15545   1.15569
 Alpha virt. eigenvalues --    1.15802   1.16097   1.16445   1.16445   1.16663
 Alpha virt. eigenvalues --    1.16663   1.16781   1.16781   1.16964   1.17057
 Alpha virt. eigenvalues --    1.17223   1.17233   1.17779   1.17779   1.17840
 Alpha virt. eigenvalues --    1.17840   1.17917   1.17917   1.18381   1.18398
 Alpha virt. eigenvalues --    1.18407   1.18485   1.18494   1.18938   1.18938
 Alpha virt. eigenvalues --    1.18991   1.18993   1.19076   1.19076   1.19705
 Alpha virt. eigenvalues --    1.19708   1.20262   1.20327   1.20327   1.20403
 Alpha virt. eigenvalues --    1.20403   1.21136   1.21556   1.21559   1.21580
 Alpha virt. eigenvalues --    1.22149   1.22149   1.23047   1.23047   1.23230
 Alpha virt. eigenvalues --    1.23235   1.23702   1.23703   1.24366   1.24366
 Alpha virt. eigenvalues --    1.25605   1.25605   1.26394   1.26530   1.27765
 Alpha virt. eigenvalues --    1.27769   1.28588   1.28589   1.28718   1.29937
 Alpha virt. eigenvalues --    1.29937   1.29937   1.29939   1.30064   1.30064
 Alpha virt. eigenvalues --    1.30808   1.31338   1.31342   1.31631   1.31631
 Alpha virt. eigenvalues --    1.31676   1.31676   1.32038   1.32039   1.32462
 Alpha virt. eigenvalues --    1.32462   1.32989   1.32989   1.33095   1.33096
 Alpha virt. eigenvalues --    1.33187   1.33678   1.33683   1.34470   1.34470
 Alpha virt. eigenvalues --    1.34514   1.35032   1.35032   1.35113   1.36692
 Alpha virt. eigenvalues --    1.38320   1.39589   1.40139   1.40139   1.40264
 Alpha virt. eigenvalues --    1.40401   1.40401   1.41037   1.41038   1.41492
 Alpha virt. eigenvalues --    1.41861   1.41861   1.41876   1.41876   1.42169
 Alpha virt. eigenvalues --    1.42170   1.43056   1.43056   1.43126   1.43132
 Alpha virt. eigenvalues --    1.43737   1.43737   1.43931   1.43934   1.45239
 Alpha virt. eigenvalues --    1.45541   1.45541   1.46717   1.46717   1.46912
 Alpha virt. eigenvalues --    1.46914   1.47057   1.47254   1.47258   1.47346
 Alpha virt. eigenvalues --    1.47562   1.47562   1.47764   1.47768   1.47910
 Alpha virt. eigenvalues --    1.47910   1.48659   1.48659   1.49456   1.49456
 Alpha virt. eigenvalues --    1.49892   1.49992   1.49995   1.50411   1.50412
 Alpha virt. eigenvalues --    1.50886   1.51289   1.51289   1.51838   1.51838
 Alpha virt. eigenvalues --    1.51842   1.52016   1.52019   1.52070   1.52070
 Alpha virt. eigenvalues --    1.53786   1.53786   1.54760   1.54870   1.54873
 Alpha virt. eigenvalues --    1.54899   1.54899   1.55287   1.55385   1.55388
 Alpha virt. eigenvalues --    1.55476   1.55476   1.55955   1.55955   1.56063
 Alpha virt. eigenvalues --    1.56136   1.56136   1.56158   1.56162   1.56380
 Alpha virt. eigenvalues --    1.56381   1.58918   1.58918   1.59762   1.59763
 Alpha virt. eigenvalues --    1.60265   1.60265   1.60273   1.60273   1.60422
 Alpha virt. eigenvalues --    1.60517   1.61304   1.61306   1.61428   1.61796
 Alpha virt. eigenvalues --    1.61796   1.63301   1.63686   1.63686   1.64378
 Alpha virt. eigenvalues --    1.64380   1.64421   1.65378   1.65379   1.65854
 Alpha virt. eigenvalues --    1.65854   1.66320   1.66323   1.67248   1.67248
 Alpha virt. eigenvalues --    1.67938   1.67943   1.67943   1.68269   1.68784
 Alpha virt. eigenvalues --    1.68785   1.68891   1.68892   1.71029   1.71029
 Alpha virt. eigenvalues --    1.72352   1.72352   1.72727   1.73409   1.73410
 Alpha virt. eigenvalues --    1.73568   1.73568   1.73621   1.73625   1.74229
 Alpha virt. eigenvalues --    1.74229   1.75176   1.75940   1.75940   1.75985
 Alpha virt. eigenvalues --    1.76541   1.76541   1.76760   1.76763   1.77347
 Alpha virt. eigenvalues --    1.77778   1.77782   1.78313   1.78362   1.78362
 Alpha virt. eigenvalues --    1.78703   1.78705   1.79051   1.79051   1.80257
 Alpha virt. eigenvalues --    1.80257   1.80338   1.80338   1.80859   1.80898
 Alpha virt. eigenvalues --    1.80898   1.80902   1.81128   1.81131   1.82351
 Alpha virt. eigenvalues --    1.82354   1.83421   1.83422   1.83435   1.83665
 Alpha virt. eigenvalues --    1.83665   1.84121   1.84121   1.84315   1.84316
 Alpha virt. eigenvalues --    1.84464   1.84464   1.86094   1.86094   1.86364
 Alpha virt. eigenvalues --    1.86657   1.86657   1.86990   1.86992   1.87084
 Alpha virt. eigenvalues --    1.87458   1.87458   1.87505   1.87505   1.87575
 Alpha virt. eigenvalues --    1.87633   1.87633   1.88088   1.88088   1.88470
 Alpha virt. eigenvalues --    1.88470   1.89254   1.89578   1.89578   1.90572
 Alpha virt. eigenvalues --    1.90575   1.92256   1.92405   1.92452   1.92457
 Alpha virt. eigenvalues --    1.92659   1.92659   1.92698   1.92698   1.93593
 Alpha virt. eigenvalues --    1.93596   1.93847   1.93883   1.93883   1.94020
 Alpha virt. eigenvalues --    1.94021   1.94038   1.94038   1.94080   1.94650
 Alpha virt. eigenvalues --    1.94650   1.95062   1.95359   1.95360   1.95398
 Alpha virt. eigenvalues --    1.95398   1.95545   1.95546   1.95559   1.95559
 Alpha virt. eigenvalues --    1.95966   1.96111   1.96112   1.98979   1.98982
 Alpha virt. eigenvalues --    1.99261   1.99261   1.99969   1.99970   2.00209
 Alpha virt. eigenvalues --    2.01346   2.01354   2.02549   2.02549   2.02725
 Alpha virt. eigenvalues --    2.02727   2.02892   2.03320   2.03455   2.03455
 Alpha virt. eigenvalues --    2.03749   2.03749   2.03840   2.04041   2.04041
 Alpha virt. eigenvalues --    2.04158   2.04161   2.05359   2.05359   2.06328
 Alpha virt. eigenvalues --    2.06331   2.07941   2.07941   2.08073   2.08076
 Alpha virt. eigenvalues --    2.09510   2.09585   2.10515   2.10515   2.10880
 Alpha virt. eigenvalues --    2.11603   2.11603   2.12516   2.12516   2.13924
 Alpha virt. eigenvalues --    2.13933   2.13934   2.14249   2.14252   2.17003
 Alpha virt. eigenvalues --    2.17003   2.17432   2.18300   2.18300   2.18972
 Alpha virt. eigenvalues --    2.18973   2.19757   2.19761   2.21069   2.21073
 Alpha virt. eigenvalues --    2.21293   2.22053   2.22053   2.22733   2.22735
 Alpha virt. eigenvalues --    2.23422   2.23422   2.24396   2.24396   2.24858
 Alpha virt. eigenvalues --    2.24962   2.24962   2.25509   2.25516   2.25522
 Alpha virt. eigenvalues --    2.28758   2.29302   2.29302   2.29711   2.29711
 Alpha virt. eigenvalues --    2.29718   2.29719   2.30007   2.30014   2.30404
 Alpha virt. eigenvalues --    2.30404   2.31183   2.31189   2.31189   2.31736
 Alpha virt. eigenvalues --    2.31736   2.31758   2.31758   2.31856   2.32254
 Alpha virt. eigenvalues --    2.32254   2.32456   2.32456   2.32520   2.32770
 Alpha virt. eigenvalues --    2.32770   2.32949   2.32971   2.33958   2.33958
 Alpha virt. eigenvalues --    2.34054   2.34055   2.34297   2.34297   2.34586
 Alpha virt. eigenvalues --    2.34589   2.38327   2.38329   2.38571   2.38571
 Alpha virt. eigenvalues --    2.39492   2.39496   2.39596   2.39596   2.39676
 Alpha virt. eigenvalues --    2.40671   2.40671   2.40797   2.40798   2.40883
 Alpha virt. eigenvalues --    2.42043   2.42345   2.42345   2.44117   2.44117
 Alpha virt. eigenvalues --    2.45500   2.46170   2.46171   2.46484   2.46484
 Alpha virt. eigenvalues --    2.47998   2.47999   2.48383   2.48383   2.49035
 Alpha virt. eigenvalues --    2.49035   2.49348   2.49774   2.49782   2.50004
 Alpha virt. eigenvalues --    2.50025   2.50025   2.50238   2.50240   2.50493
 Alpha virt. eigenvalues --    2.50493   2.50934   2.51287   2.51287   2.51573
 Alpha virt. eigenvalues --    2.52464   2.52464   2.52538   2.52539   2.55966
 Alpha virt. eigenvalues --    2.55992   2.55992   2.56279   2.56286   2.56592
 Alpha virt. eigenvalues --    2.56592   2.56808   2.56808   2.56857   2.57073
 Alpha virt. eigenvalues --    2.57073   2.57326   2.57326   2.57328   2.57959
 Alpha virt. eigenvalues --    2.57960   2.58233   2.58233   2.58546   2.58948
 Alpha virt. eigenvalues --    2.58948   2.59438   2.59552   2.59554   2.59698
 Alpha virt. eigenvalues --    2.59698   2.60932   2.60933   2.62919   2.62920
 Alpha virt. eigenvalues --    2.64061   2.64063   2.64722   2.64722   2.64918
 Alpha virt. eigenvalues --    2.65079   2.65081   2.65338   2.65338   2.66060
 Alpha virt. eigenvalues --    2.66354   2.67383   2.67383   2.67508   2.67508
 Alpha virt. eigenvalues --    2.69801   2.69801   2.70451   2.70804   2.70809
 Alpha virt. eigenvalues --    2.70897   2.70897   2.71975   2.71975   2.72004
 Alpha virt. eigenvalues --    2.72010   2.73722   2.73726   2.73830   2.73830
 Alpha virt. eigenvalues --    2.73997   2.74006   2.74006   2.74663   2.74663
 Alpha virt. eigenvalues --    2.75264   2.76751   2.76754   2.76805   2.76833
 Alpha virt. eigenvalues --    2.76833   2.77970   2.77970   2.78430   2.78432
 Alpha virt. eigenvalues --    2.79004   2.79007   2.79822   2.79822   2.80089
 Alpha virt. eigenvalues --    2.80878   2.80983   2.80983   2.82085   2.82085
 Alpha virt. eigenvalues --    2.82612   2.83974   2.83976   2.87386   2.87386
 Alpha virt. eigenvalues --    2.87542   2.87708   2.87708   2.88020   2.88038
 Alpha virt. eigenvalues --    2.88038   2.88509   2.88517   2.89063   2.89068
 Alpha virt. eigenvalues --    2.90602   2.90602   2.93136   2.93137   2.93633
 Alpha virt. eigenvalues --    2.93633   2.94746   2.94978   2.94983   2.95353
 Alpha virt. eigenvalues --    2.95354   2.95738   2.95738   2.97041   2.97041
 Alpha virt. eigenvalues --    2.98483   2.98483   2.99460   2.99460   2.99750
 Alpha virt. eigenvalues --    2.99848   3.00353   3.00588   3.00588   3.01610
 Alpha virt. eigenvalues --    3.02799   3.02800   3.03483   3.03483   3.04319
 Alpha virt. eigenvalues --    3.04321   3.07005   3.07005   3.07350   3.07350
 Alpha virt. eigenvalues --    3.07855   3.08225   3.08225   3.09812   3.09815
 Alpha virt. eigenvalues --    3.10745   3.11220   3.11220   3.11591   3.11591
 Alpha virt. eigenvalues --    3.11831   3.11896   3.12187   3.12187   3.12555
 Alpha virt. eigenvalues --    3.12560   3.12647   3.12648   3.12845   3.12846
 Alpha virt. eigenvalues --    3.14080   3.14769   3.14769   3.15965   3.16337
 Alpha virt. eigenvalues --    3.16337   3.16570   3.16572   3.17256   3.17256
 Alpha virt. eigenvalues --    3.17663   3.17663   3.18391   3.18395   3.18786
 Alpha virt. eigenvalues --    3.18786   3.18834   3.18881   3.18882   3.19778
 Alpha virt. eigenvalues --    3.19778   3.20184   3.20184   3.20467   3.23764
 Alpha virt. eigenvalues --    3.24022   3.24022   3.24547   3.24553   3.24593
 Alpha virt. eigenvalues --    3.24594   3.24596   3.24596   3.24617   3.24658
 Alpha virt. eigenvalues --    3.24659   3.25152   3.25173   3.25176   3.25227
 Alpha virt. eigenvalues --    3.25227   3.25891   3.25891   3.27194   3.27195
 Alpha virt. eigenvalues --    3.28292   3.28292   3.28662   3.29030   3.29119
 Alpha virt. eigenvalues --    3.29119   3.29849   3.29850   3.30687   3.30687
 Alpha virt. eigenvalues --    3.31136   3.31138   3.31332   3.31332   3.31474
 Alpha virt. eigenvalues --    3.31912   3.32249   3.32412   3.32412   3.32693
 Alpha virt. eigenvalues --    3.32693   3.33552   3.33553   3.33901   3.33903
 Alpha virt. eigenvalues --    3.34712   3.34712   3.37939   3.38316   3.38316
 Alpha virt. eigenvalues --    3.38356   3.38356   3.38884   3.38887   3.39009
 Alpha virt. eigenvalues --    3.39012   3.40364   3.40364   3.40837   3.41269
 Alpha virt. eigenvalues --    3.41270   3.41547   3.41547   3.41901   3.41901
 Alpha virt. eigenvalues --    3.41961   3.43419   3.43833   3.43834   3.44204
 Alpha virt. eigenvalues --    3.44204   3.44259   3.44259   3.44356   3.44772
 Alpha virt. eigenvalues --    3.44773   3.45549   3.45549   3.45776   3.45777
 Alpha virt. eigenvalues --    3.47515   3.47515   3.48586   3.48586   3.48829
 Alpha virt. eigenvalues --    3.49482   3.49483   3.49625   3.49627   3.50691
 Alpha virt. eigenvalues --    3.50691   3.51165   3.51830   3.51830   3.52792
 Alpha virt. eigenvalues --    3.57335   3.57847   3.57847   3.59267   3.59269
 Alpha virt. eigenvalues --    3.60642   3.60642   3.62175   3.62176   3.64717
 Alpha virt. eigenvalues --    3.64717   3.66680   3.72038   3.73129   3.73129
 Alpha virt. eigenvalues --    3.73889   3.73889   3.73973   3.73976   3.74022
 Alpha virt. eigenvalues --    3.74023   3.74880   3.74880   3.75470   3.93063
 Alpha virt. eigenvalues --    3.93064   3.93674   3.93674   3.93681   3.93681
 Alpha virt. eigenvalues --    3.94167   3.95325   3.95326   3.96521   3.96522
 Alpha virt. eigenvalues --    3.96522   4.00883   4.01090   4.01090   4.02869
 Alpha virt. eigenvalues --    4.02869   4.05610   4.05610   4.08452   4.08454
 Alpha virt. eigenvalues --    4.11598   4.11598   4.14613   4.18760   4.23866
 Alpha virt. eigenvalues --    4.23866   4.32572   4.32573   4.43084   4.43084
 Alpha virt. eigenvalues --    4.54452   4.54471   4.64416   4.64416   4.68680
 Alpha virt. eigenvalues --    4.69592   4.69639   4.69639   4.69978   4.69988
 Alpha virt. eigenvalues --    4.70772   4.70773   4.71823   4.71827   4.72549
 Alpha virt. eigenvalues --    4.72561   4.72561   4.75508   4.75764   4.75764
 Alpha virt. eigenvalues --    4.77225   4.77229   4.79430   4.79430   4.81625
 Alpha virt. eigenvalues --    4.81631   4.83303   4.83303   4.83952  23.10501
 Alpha virt. eigenvalues --   23.13803  23.13803  23.21904  23.21907  23.31787
 Alpha virt. eigenvalues --   23.31787  23.41396  23.41396  23.49089  23.49089
 Alpha virt. eigenvalues --   23.52308  23.61668  23.61988  23.61988  23.63088
 Alpha virt. eigenvalues --   23.63089  23.64687  23.64687  23.66344  23.66344
 Alpha virt. eigenvalues --   23.67609  23.67609  23.68086  23.75248  23.76721
 Alpha virt. eigenvalues --   23.76721  23.79183  23.79184  23.80846  23.80846
 Alpha virt. eigenvalues --   23.81633  23.81635  23.81991  23.81991  23.82121
 Alpha virt. eigenvalues --   23.89044  23.89284  23.89284  23.90035  23.90037
 Alpha virt. eigenvalues --   23.91243  23.91243  23.92546  23.92549  23.93531
 Alpha virt. eigenvalues --   23.93531  23.93907  23.96912  23.97225  23.97225
 Alpha virt. eigenvalues --   23.97833  23.97834  23.98353  23.98353  23.98693
 Alpha virt. eigenvalues --   23.98695  23.98891  23.98891  23.98960  24.03700
 Alpha virt. eigenvalues --   24.03737  24.03737  24.03868  24.03869  24.04133
 Alpha virt. eigenvalues --   24.04133  24.04533  24.04534  24.04963  24.04963
 Alpha virt. eigenvalues --   24.05165  24.08314  24.08384  24.08384  24.08531
 Alpha virt. eigenvalues --   24.08534  24.08679  24.08679  24.08800  24.08802
 Alpha virt. eigenvalues --   24.08896  24.08897  24.08937  24.14527  24.14528
 Alpha virt. eigenvalues --   24.14564  24.14564  24.14617  24.14628  24.14629
 Alpha virt. eigenvalues --   24.14842  24.14843  24.15064  24.15064  24.15163
          Condensed to atoms (all electrons):
 Mulliken charges:
               1
     1  C    0.062243
     2  C    0.004497
     3  C   -0.227246
     4  C   -0.227263
     5  C    0.062229
     6  C    0.004519
     7  C   -0.235539
     8  C   -0.235540
     9  C    0.004532
    10  C    0.062257
    11  C   -0.227283
    12  C   -0.227235
    13  C    0.004537
    14  C    0.062220
    15  C   -0.235560
    16  C   -0.235562
    17  C    0.062226
    18  C    0.004532
    19  C   -0.227281
    20  C   -0.227237
    21  C    0.062260
    22  C    0.004537
    23  C   -0.235539
    24  C   -0.235545
    25  C    0.004493
    26  C    0.062247
    27  C   -0.227267
    28  C   -0.227246
    29  C    0.004519
    30  C    0.062228
    31  C   -0.235536
    32  C   -0.235542
    33  C    0.062256
    34  C    0.004535
    35  C   -0.227235
    36  C   -0.227281
    37  C    0.062219
    38  C    0.004538
    39  C   -0.235560
    40  C   -0.235563
    41  C    0.004530
    42  C    0.062227
    43  C   -0.227239
    44  C   -0.227282
    45  C    0.004535
    46  C    0.062261
    47  C   -0.235543
    48  C   -0.235540
    49  C    0.062243
    50  C    0.004497
    51  C   -0.227246
    52  C   -0.227264
    53  C    0.062229
    54  C    0.004519
    55  C   -0.235540
    56  C   -0.235539
    57  C    0.004533
    58  C    0.062257
    59  C   -0.227283
    60  C   -0.227235
    61  C    0.004537
    62  C    0.062220
    63  C   -0.235561
    64  C   -0.235561
    65  C    0.062226
    66  C    0.004532
    67  C   -0.227281
    68  C   -0.227236
    69  C    0.062261
    70  C    0.004536
    71  C   -0.235539
    72  C   -0.235546
    73  C    0.004495
    74  C    0.062246
    75  C   -0.227266
    76  C   -0.227246
    77  C    0.004518
    78  C    0.062229
    79  C   -0.235538
    80  C   -0.235541
    81  C    0.062256
    82  C    0.004534
    83  C   -0.227235
    84  C   -0.227281
    85  C    0.062219
    86  C    0.004537
    87  C   -0.235560
    88  C   -0.235562
    89  C    0.004531
    90  C    0.062227
    91  C   -0.227239
    92  C   -0.227281
    93  C    0.004536
    94  C    0.062261
    95  C   -0.235543
    96  C   -0.235540
    97  H    0.190646
    98  H    0.190649
    99  H    0.205397
   100  H    0.205386
   101  H    0.190651
   102  H    0.190653
   103  H    0.205385
   104  H    0.205387
   105  H    0.190652
   106  H    0.190655
   107  H    0.205386
   108  H    0.205396
   109  H    0.190649
   110  H    0.190646
   111  H    0.205386
   112  H    0.205397
   113  H    0.190654
   114  H    0.190651
   115  H    0.205387
   116  H    0.205385
   117  H    0.190655
   118  H    0.190651
   119  H    0.205396
   120  H    0.205385
   121  H    0.190647
   122  H    0.190649
   123  H    0.205397
   124  H    0.205386
   125  H    0.190651
   126  H    0.190654
   127  H    0.205385
   128  H    0.205387
   129  H    0.190651
   130  H    0.190654
   131  H    0.205385
   132  H    0.205396
   133  H    0.190648
   134  H    0.190646
   135  H    0.205386
   136  H    0.205397
   137  H    0.190654
   138  H    0.190651
   139  H    0.205387
   140  H    0.205385
   141  H    0.190654
   142  H    0.190651
   143  H    0.205396
   144  H    0.205385
 Sum of Mulliken charges =  -0.00000
 Mulliken charges with hydrogens summed into heavy atoms:
               1
     1  C    0.062243
     2  C    0.004497
     3  C   -0.036600
     4  C   -0.036614
     5  C    0.062229
     6  C    0.004519
     7  C   -0.030142
     8  C   -0.030154
     9  C    0.004532
    10  C    0.062257
    11  C   -0.036632
    12  C   -0.036582
    13  C    0.004537
    14  C    0.062220
    15  C   -0.030175
    16  C   -0.030175
    17  C    0.062226
    18  C    0.004532
    19  C   -0.036629
    20  C   -0.036582
    21  C    0.062260
    22  C    0.004537
    23  C   -0.030153
    24  C   -0.030149
    25  C    0.004493
    26  C    0.062247
    27  C   -0.036618
    28  C   -0.036600
    29  C    0.004519
    30  C    0.062228
    31  C   -0.030150
    32  C   -0.030145
    33  C    0.062256
    34  C    0.004535
    35  C   -0.036581
    36  C   -0.036630
    37  C    0.062219
    38  C    0.004538
    39  C   -0.030173
    40  C   -0.030178
    41  C    0.004530
    42  C    0.062227
    43  C   -0.036584
    44  C   -0.036630
    45  C    0.004535
    46  C    0.062261
    47  C   -0.030147
    48  C   -0.030154
    49  C    0.062243
    50  C    0.004497
    51  C   -0.036599
    52  C   -0.036615
    53  C    0.062229
    54  C    0.004519
    55  C   -0.030142
    56  C   -0.030153
    57  C    0.004533
    58  C    0.062257
    59  C   -0.036632
    60  C   -0.036582
    61  C    0.004537
    62  C    0.062220
    63  C   -0.030176
    64  C   -0.030174
    65  C    0.062226
    66  C    0.004532
    67  C   -0.036630
    68  C   -0.036582
    69  C    0.062261
    70  C    0.004536
    71  C   -0.030153
    72  C   -0.030149
    73  C    0.004495
    74  C    0.062246
    75  C   -0.036618
    76  C   -0.036600
    77  C    0.004518
    78  C    0.062229
    79  C   -0.030151
    80  C   -0.030144
    81  C    0.062256
    82  C    0.004534
    83  C   -0.036581
    84  C   -0.036630
    85  C    0.062219
    86  C    0.004537
    87  C   -0.030173
    88  C   -0.030178
    89  C    0.004531
    90  C    0.062227
    91  C   -0.036584
    92  C   -0.036630
    93  C    0.004536
    94  C    0.062261
    95  C   -0.030147
    96  C   -0.030155
 Electronic spatial extent (au):  <R**2>=         160610.4276
 Charge=             -0.0000 electrons
 Dipole moment (field-independent basis, Debye):
    X=             -0.0000    Y=              0.0000    Z=             -0.0000  Tot=              0.0000
 Quadrupole moment (field-independent basis, Debye-Ang):
   XX=           -577.8513   YY=           -577.8516   ZZ=           -468.1279
   XY=             -0.0000   XZ=              0.0000   YZ=              0.0001
 Traceless Quadrupole moment (field-independent basis, Debye-Ang):
   XX=            -36.5744   YY=            -36.5747   ZZ=             73.1491
   XY=             -0.0000   XZ=              0.0000   YZ=              0.0001
 Octapole moment (field-independent basis, Debye-Ang**2):
  XXX=             -0.0000  YYY=              0.0008  ZZZ=             29.0376  XYY=             -0.0012
  XXY=             -0.0012  XXZ=             12.2034  XZZ=             -0.0002  YZZ=             -0.0001
  YYZ=             11.6911  XYZ=             -0.0369
 Hexadecapole moment (field-independent basis, Debye-Ang**3):
 XXXX=        -120577.0355 YYYY=        -120576.9075 ZZZZ=          -7950.2245 XXXY=              0.1006
 XXXZ=              0.0060 YYYX=             -0.0458 YYYZ=              0.0085 ZZZX=              0.0032
 ZZZY=              0.0032 XXYY=         -40191.8957 XXZZ=         -17691.0841 YYZZ=         -17691.0433
 XXYZ=              0.0044 YYXZ=              0.0009 ZZXY=              0.0080
 N-N= 1.367868595080D+04 E-N=-3.591376124749D+04  KE= 3.672067045352D+03
 1\1\GINC-CU19\SP\RB3LYP\6-311G(d)\C96H48\WANG\27-Apr-2025\0\\# B3LYP/6
 -311G* NOSYMM\\From 12_12-CNB_opt.out\\0,1\C,0,8.139727,-1.519802,-1.2
 19621\C,0,8.242747,-0.831107,0.032308\C,0,8.29074,0.578947,-2.448382\C
 ,0,8.274562,-0.777654,-2.448417\C,0,8.1737,1.324056,-1.219556\C,0,8.26
 0277,0.633046,0.032348\C,0,8.175223,1.401797,1.198187\C,0,7.846974,2.6
 86209,-1.241256\C,0,7.554469,3.402106,-0.075344\C,0,7.810022,2.754131,
 1.176505\C,0,7.556816,3.464435,2.405413\C,0,6.892854,4.64756,2.405725\
 C,0,6.838025,4.679132,-0.074998\C,0,6.418231,5.234288,1.177156\C,0,5.4
 54018,6.250379,1.199427\C,0,6.37952,5.302573,-1.240543\C,0,5.386919,6.
 290965,-1.218273\C,0,4.841909,6.723885,0.033857\C,0,3.644939,7.471645,
 -2.446598\C,0,4.811849,6.779589,-2.446871\C,0,2.940843,7.741753,-1.217
 717\C,0,3.582454,7.470795,0.034159\C,0,2.87374,7.780465,1.200037\C,0,1
 .597634,8.139216,-1.239464\C,0,0.831105,8.242738,-0.073664\C,0,1.51980
 8,8.139719,1.178273\C,0,0.777652,8.274565,2.407061\C,0,-0.57895,8.2907
 48,2.407027\C,0,-0.633049,8.260276,-0.073704\C,0,-1.324067,8.173702,1.
 178208\C,0,-2.686211,7.846981,1.199906\C,0,-1.401797,8.175225,-1.23953
 7\C,0,-2.75414,7.810015,-1.217853\C,0,-3.402108,7.554467,0.033987\C,0,
 -4.647555,6.892839,-2.447081\C,0,-3.464431,7.556805,-2.446768\C,0,-5.2
 34279,6.418228,-1.218504\C,0,-4.679131,6.838021,0.033641\C,0,-5.302577
 ,6.379514,1.199193\C,0,-6.250379,5.454009,-1.240777\C,0,-6.723891,4.84
 1909,-0.075214\C,0,-6.290968,5.386927,1.176924\C,0,-6.779607,4.811858,
 2.405515\C,0,-7.471667,3.64495,2.405242\C,0,-7.470807,3.582457,-0.0755
 16\C,0,-7.741773,2.940842,1.17637\C,0,-8.139233,1.597643,1.198115\C,0,
 -7.780478,2.873747,-1.241386\C,0,-8.139726,1.519803,-1.21962\C,0,-8.24
 2746,0.831108,0.032309\C,0,-8.29074,-0.578947,-2.448381\C,0,-8.274562,
 0.777654,-2.448416\C,0,-8.173699,-1.324055,-1.219555\C,0,-8.260276,-0.
 633045,0.032349\C,0,-8.175222,-1.401796,1.198188\C,0,-7.846973,-2.6862
 08,-1.241255\C,0,-7.554468,-3.402105,-0.075342\C,0,-7.810021,-2.75413,
 1.176506\C,0,-7.556815,-3.464434,2.405414\C,0,-6.892853,-4.647559,2.40
 5727\C,0,-6.838024,-4.679131,-0.074996\C,0,-6.41823,-5.234287,1.177158
 \C,0,-5.454017,-6.250378,1.199428\C,0,-6.37952,-5.302573,-1.240541\C,0
 ,-5.386918,-6.290965,-1.218272\C,0,-4.841908,-6.723884,0.033858\C,0,-3
 .644939,-7.471644,-2.446596\C,0,-4.811849,-6.779589,-2.446869\C,0,-2.9
 40842,-7.741753,-1.217716\C,0,-3.582453,-7.470794,0.034161\C,0,-2.8737
 39,-7.780464,1.200038\C,0,-1.597633,-8.139216,-1.239462\C,0,-0.831104,
 -8.242738,-0.073663\C,0,-1.519807,-8.139718,1.178274\C,0,-0.777651,-8.
 274563,2.407062\C,0,0.578951,-8.290747,2.407028\C,0,0.63305,-8.260275,
 -0.073703\C,0,1.324068,-8.173702,1.178209\C,0,2.686211,-7.84698,1.1999
 07\C,0,1.401798,-8.175224,-1.239536\C,0,2.75414,-7.810015,-1.217853\C,
 0,3.402109,-7.554467,0.033987\C,0,4.647555,-6.892839,-2.447081\C,0,3.4
 64431,-7.556805,-2.446768\C,0,5.23428,-6.418227,-1.218504\C,0,4.679132
 ,-6.83802,0.033642\C,0,5.302578,-6.379514,1.199193\C,0,6.250379,-5.454
 008,-1.240777\C,0,6.723891,-4.841909,-0.075214\C,0,6.290969,-5.386926,
 1.176924\C,0,6.779608,-4.811857,2.405515\C,0,7.471668,-3.644949,2.4052
 42\C,0,7.470808,-3.582457,-0.075516\C,0,7.741774,-2.940841,1.176369\C,
 0,8.139234,-1.597642,1.198114\C,0,7.780478,-2.873747,-1.241387\H,0,8.3
 24733,1.13142,-3.384301\H,0,8.295394,-1.330733,-3.384362\H,0,8.285652,
 0.930926,2.170374\H,0,7.717901,3.152287,-2.213451\H,0,7.851859,2.99583
 9,3.341196\H,0,6.646738,5.143115,3.341771\H,0,5.109636,6.589346,2.1718
 22\H,0,6.710236,4.950281,-2.212945\H,0,3.183559,7.777832,-3.382388\H,0
 ,5.301458,6.521735,-3.382884\H,0,3.336584,7.640332,2.172246\H,0,1.1295
 71,8.260788,-2.211675\H,0,1.330714,8.295405,3.343016\H,0,-1.131405,8.3
 24753,3.342956\H,0,-3.152298,7.717903,2.172096\H,0,-0.930937,8.285669,
 -2.211727\H,0,-5.143118,6.646705,-3.383116\H,0,-2.995815,7.851846,-3.3
 82542\H,0,-4.950268,6.710224,2.171591\H,0,-6.589339,5.109634,-2.213177
 \H,0,-6.521771,5.301458,3.341538\H,0,-7.777858,3.183592,3.341042\H,0,-
 8.260807,1.12957,2.170321\H,0,-7.640364,3.33659,-2.213599\H,0,-8.32473
 3,-1.131419,-3.384299\H,0,-8.295394,1.330733,-3.384361\H,0,-8.285651,-
 0.930925,2.170375\H,0,-7.7179,-3.152286,-2.213449\H,0,-7.851858,-2.995
 838,3.341198\H,0,-6.646737,-5.143114,3.341772\H,0,-5.109635,-6.589345,
 2.171824\H,0,-6.710236,-4.95028,-2.212943\H,0,-3.183559,-7.777832,-3.3
 82386\H,0,-5.301458,-6.521735,-3.382883\H,0,-3.336583,-7.640331,2.1722
 48\H,0,-1.129571,-8.260788,-2.211673\H,0,-1.330713,-8.295404,3.343018\
 H,0,1.131406,-8.324751,3.342957\H,0,3.152299,-7.717902,2.172097\H,0,0.
 930937,-8.285668,-2.211726\H,0,5.143118,-6.646704,-3.383116\H,0,2.9958
 15,-7.851846,-3.382541\H,0,4.950269,-6.710223,2.171592\H,0,6.589339,-5
 .109634,-2.213178\H,0,6.521772,-5.301457,3.341538\H,0,7.777859,-3.1835
 91,3.341042\H,0,8.260808,-1.129569,2.17032\H,0,7.640364,-3.33659,-2.21
 36\\Version=ES64L-G16RevB.01\HF=-3688.0603392\RMSD=8.261e-09\Dipole=-0
 .0000011,0.0000015,-0.0000157\Quadrupole=-27.1921596,-27.1923715,54.38
 4531,-0.0000028,0.0000197,0.0000803\PG=C01 [X(C96H48)]\\@


 NO MATTER HOW THIN YOU SLICE IT, IT'S STILL BALONEY

                                   -- ALFRED E. SMITH
 Job cpu time:       0 days  1 hours 21 minutes  7.7 seconds.
 Elapsed time:       0 days  0 hours  4 minutes 32.5 seconds.
 File lengths (MBytes):  RWF=   1882 Int=      0 D2E=      0 Chk=    202 Scr=      1
 Normal termination of Gaussian 16 at Sun Apr 27 18:22:24 2025.
