 Entering Gaussian System, Link 0=g16
 Initial command:
 /opt/software/g16/l1.exe "/tmp/14_14-CNB-6648.tmp/Gau-44715.inp" -scrdir="/tmp/14_14-CNB-6648.tmp/"
 Entering Link 1 = /opt/software/g16/l1.exe PID=     44716.
  
 Copyright (c) 1988-2017, Gaussian, Inc.  All Rights Reserved.
  
 This is part of the Gaussian(R) 16 program.  It is based on
 the Gaussian(R) 09 system (copyright 2009, Gaussian, Inc.),
 the Gaussian(R) 03 system (copyright 2003, Gaussian, Inc.),
 the Gaussian(R) 98 system (copyright 1998, Gaussian, Inc.),
 the Gaussian(R) 94 system (copyright 1995, Gaussian, Inc.),
 the Gaussian 92(TM) system (copyright 1992, Gaussian, Inc.),
 the Gaussian 90(TM) system (copyright 1990, Gaussian, Inc.),
 the Gaussian 88(TM) system (copyright 1988, Gaussian, Inc.),
 the Gaussian 86(TM) system (copyright 1986, Carnegie Mellon
 University), and the Gaussian 82(TM) system (copyright 1983,
 Carnegie Mellon University). Gaussian is a federally registered
 trademark of Gaussian, Inc.
  
 This software contains proprietary and confidential information,
 including trade secrets, belonging to Gaussian, Inc.
  
 This software is provided under written license and may be
 used, copied, transmitted, or stored only in accord with that
 written license.
  
 The following legend is applicable only to US Government
 contracts under FAR:
  
                    RESTRICTED RIGHTS LEGEND
  
 Use, reproduction and disclosure by the US Government is
 subject to restrictions as set forth in subparagraphs (a)
 and (c) of the Commercial Computer Software - Restricted
 Rights clause in FAR 52.227-19.
  
 Gaussian, Inc.
 340 Quinnipiac St., Bldg. 40, Wallingford CT 06492
  
  
 ---------------------------------------------------------------
 Warning -- This program may not be used in any manner that
 competes with the business of Gaussian, Inc. or will provide
 assistance to any competitor of Gaussian, Inc.  The licensee
 of this program is prohibited from giving any competitor of
 Gaussian, Inc. access to this program.  By using this program,
 the user acknowledges that Gaussian, Inc. is engaged in the
 business of creating and licensing software in the field of
 computational chemistry and represents and warrants to the
 licensee that it is not a competitor of Gaussian, Inc. and that
 it will not use this program in any manner prohibited above.
 ---------------------------------------------------------------
  

 Cite this work as:
 Gaussian 16, Revision B.01,
 M. J. Frisch, G. W. Trucks, H. B. Schlegel, G. E. Scuseria, 
 M. A. Robb, J. R. Cheeseman, G. Scalmani, V. Barone, 
 G. A. Petersson, H. Nakatsuji, X. Li, M. Caricato, A. V. Marenich, 
 J. Bloino, B. G. Janesko, R. Gomperts, B. Mennucci, H. P. Hratchian, 
 J. V. Ortiz, A. F. Izmaylov, J. L. Sonnenberg, D. Williams-Young, 
 F. Ding, F. Lipparini, F. Egidi, J. Goings, B. Peng, A. Petrone, 
 T. Henderson, D. Ranasinghe, V. G. Zakrzewski, J. Gao, N. Rega, 
 G. Zheng, W. Liang, M. Hada, M. Ehara, K. Toyota, R. Fukuda, 
 J. Hasegawa, M. Ishida, T. Nakajima, Y. Honda, O. Kitao, H. Nakai, 
 T. Vreven, K. Throssell, J. A. Montgomery, Jr., J. E. Peralta, 
 F. Ogliaro, M. J. Bearpark, J. J. Heyd, E. N. Brothers, K. N. Kudin, 
 V. N. Staroverov, T. A. Keith, R. Kobayashi, J. Normand, 
 K. Raghavachari, A. P. Rendell, J. C. Burant, S. S. Iyengar, 
 J. Tomasi, M. Cossi, J. M. Millam, M. Klene, C. Adamo, R. Cammi, 
 J. W. Ochterski, R. L. Martin, K. Morokuma, O. Farkas, 
 J. B. Foresman, and D. J. Fox, Gaussian, Inc., Wallingford CT, 2016.
 
 ******************************************
 Gaussian 16:  ES64L-G16RevB.01 20-Dec-2017
                27-Apr-2025 
 ******************************************
 %nproc=18
 Will use up to   18 processors via shared memory.
 ----------------------
 # B3LYP/6-311G* NOSYMM
 ----------------------
 1/38=1,172=1/1;
 2/12=2,15=1,17=6,18=5,40=1/2;
 3/5=4,6=6,7=1,11=2,25=1,30=1,74=-5/1,2,3;
 4//1;
 5/5=2,38=5/2;
 6/7=2,8=2,9=2,10=2,28=1/1;
 99/5=1,9=1/99;
 ----------------------
 From 14_14-CNB_opt.out
 ----------------------
 Symbolic Z-matrix:
 Charge =  0 Multiplicity = 1
 6                     9.53704  -1.52084  -1.21644 
 6                     9.62492  -0.8301    0.03557 
 6                     9.66744   0.57991  -2.44538 
 6                     9.65357  -0.7768   -2.44538 
 6                     9.5662    1.3262   -1.21645 
 6                     9.63996   0.63382   0.03556 
 6                     9.56712   1.40292   1.20157 
 6                     9.28523   2.69851  -1.23764 
 6                     9.03217   3.42844  -0.07163 
 6                     9.25277   2.76797   1.18039 
 6                     9.03489   3.48884   2.40934 
 6                     8.45859   4.71714   2.40937 
 6                     8.41044   4.75385  -0.0716 
 6                     8.04353   5.34558   1.18046 
 6                     7.19486   6.46      1.20171 
 6                     8.01106   5.41524  -1.23755 
 6                     7.1355    6.50866  -1.2163 
 6                     6.65017   7.00791   0.03574 
 6                     5.57451   7.92061  -2.4452 
 6                     6.62652   7.0638   -2.44522 
 6                     4.92785   8.30665  -1.21627 
 6                     5.51505   7.93245   0.03575 
 6                     4.86826   8.35496   1.20174 
 6                     3.67977   8.94267  -1.2375 
 6                     2.95123   9.19977  -0.07152 
 6                     3.60505   8.96031   1.18052 
 6                     2.90556   9.23944   2.40944 
 6                     1.58597   9.5549    2.40943 
 6                     1.52735   9.54016  -0.07153 
 6                     0.8359    9.6223    1.18048 
 6                    -0.56452   9.65374   1.20168 
 6                     0.76129   9.6402   -1.23752 
 6                    -0.63949   9.63745  -1.21633 
 6                    -1.33247   9.56944   0.03568 
 6                    -2.7165    9.29687  -2.44532 
 6                    -1.39076   9.58538  -2.44529 
 6                    -3.42154   9.03208  -1.21639 
 6                    -2.76302   9.25824   0.03565 
 6                    -3.49671   9.01612   1.20162 
 6                    -4.6968    8.45254  -1.23763 
 6                    -5.35208   8.04331  -0.07164 
 6                    -4.75744   8.40559   1.18038 
 6                    -5.41182   8.03275   2.4093 
 6                    -6.48092   7.19737   2.40932 
 6                    -6.50573   7.142    -0.07163 
 6                    -7.00105   6.65266   1.18041 
 6                    -7.89861   5.57722   1.20166 
 6                    -7.06148   6.6053   -1.2376 
 6                    -7.93259   5.50833  -1.21635 
 6                    -8.31141   4.92415   0.03569 
 6                    -8.96144   3.67212  -2.44525 
 6                    -8.36034   4.88847  -2.44528 
 6                    -9.194     2.95585  -1.21629 
 6                    -8.96004   3.61169   0.03573 
 6                    -9.22803   2.88711   1.20173 
 6                    -9.53622   1.59751  -1.23746 
 6                    -9.62492   0.8301   -0.07145 
 6                    -9.53705   1.52085   1.18056 
 6                    -9.65358   0.7768    2.40949 
 6                    -9.66746  -0.57991   2.4095 
 6                    -9.63996  -0.63382  -0.07144 
 6                    -9.5662   -1.3262    1.18058 
 6                    -9.28523  -2.69851   1.20176 
 6                    -9.56711  -1.40292  -1.23744 
 6                    -9.25276  -2.76797  -1.21626 
 6                    -9.03217  -3.42844   0.03575 
 6                    -8.45857  -4.71713  -2.44526 
 6                    -9.03487  -3.48884  -2.44523 
 6                    -8.04352  -5.34557  -1.21633 
 6                    -8.41044  -4.75386   0.03571 
 6                    -8.01107  -5.41525   1.20168 
 6                    -7.19486  -6.46     -1.23759 
 6                    -6.65018  -7.00792  -0.07162 
 6                    -7.13551  -6.50867   1.18042 
 6                    -6.62654  -7.06382   2.40933 
 6                    -5.57452  -7.92063   2.40931 
 6                    -5.51505  -7.93245  -0.07163 
 6                    -4.92785  -8.30667   1.1804 
 6                    -3.67978  -8.94267   1.20162 
 6                    -4.86826  -8.35495  -1.23762 
 6                    -3.60504  -8.96031  -1.2164 
 6                    -2.95123  -9.19977   0.03564 
 6                    -1.58597  -9.55489  -2.44531 
 6                    -2.90556  -9.23943  -2.44533 
 6                    -0.83591  -9.6223   -1.21636 
 6                    -1.52735  -9.54016   0.03565 
 6                    -0.76129  -9.64021   1.20165 
 6                     0.56452  -9.65374  -1.23756 
 6                     1.33247  -9.56944  -0.07156 
 6                     0.63948  -9.63745   1.18045 
 6                     1.39076  -9.58539   2.4094 
 6                     2.7165   -9.29688   2.40943 
 6                     2.76301  -9.25824  -0.07154 
 6                     3.42155  -9.03208   1.18051 
 6                     4.6968   -8.45254   1.20175 
 6                     3.4967   -9.0161   -1.2375 
 6                     4.75744  -8.40558  -1.21626 
 6                     5.35208  -8.04331   0.03576 
 6                     6.4809   -7.19735  -2.44521 
 6                     5.4118   -8.03273  -2.44519 
 6                     7.00103  -6.65265  -1.21629 
 6                     6.50574  -7.142     0.03575 
 6                     7.06149  -6.60531   1.20172 
 6                     7.8986   -5.57722  -1.23754 
 6                     8.31141  -4.92415  -0.07158 
 6                     7.9326   -5.50834   1.18047 
 6                     8.36036  -4.88848   2.40939 
 6                     8.96146  -3.67212   2.40936 
 6                     8.96004  -3.6117   -0.07161 
 6                     9.19401  -2.95585   1.18041 
 6                     9.53622  -1.59752   1.20158 
 6                     9.22803  -2.88711  -1.23761 
 1                     9.6969    1.13216  -3.38158 
 1                     9.67174  -1.32954  -3.38157 
 1                     9.6621    0.92863   2.17368 
 1                     9.17466   3.16934  -2.20978 
 1                     9.29111   2.99872   3.34553 
 1                     8.24546   5.22743   3.34558 
 1                     6.89091   6.83615   2.17387 
 1                     8.30252   5.02931  -2.2097 
 1                     5.16117   8.28808  -3.38138 
 1                     7.07005   6.73345  -3.38141 
 1                     5.29824   8.13351   2.17387 
 1                     3.24282   9.14995  -2.20965 
 1                     3.44845   9.13406   3.34565 
 1                     1.0541    9.70647   3.34562 
 1                    -1.04817   9.65066   2.17381 
 1                     1.24478   9.62724  -2.20965 
 1                    -3.26143   9.20255  -3.38151 
 1                    -0.85589   9.7261   -3.38147 
 1                    -3.05568   9.21456   2.17378 
 1                    -5.13113   8.23981  -2.20977 
 1                    -4.99116   8.39178   3.3455 
 1                    -6.93101   6.87605   3.34553 
 1                    -8.19779   5.19724   2.17381 
 1                    -6.75003   6.97527  -2.20975 
 1                    -9.22757   3.18729  -3.38143 
 1                    -8.13689   5.39435  -3.38147 
 1                    -9.10792   3.35562   2.17386 
 1                    -9.64078   1.12524  -2.20957 
 1                    -9.67175   1.32953   3.3457 
 1                    -9.69691  -1.13214   3.34571 
 1                    -9.17466  -3.16935   2.17389 
 1                    -9.66209  -0.92863  -2.20956 
 1                    -8.24543  -5.22744  -3.38146 
 1                    -9.29111  -2.9987   -3.3814 
 1                    -8.30254  -5.02932   2.17382 
 1                    -6.89091  -6.83615  -2.20975 
 1                    -7.07005  -6.73348   3.34554 
 1                    -5.1612   -8.28808   3.34551 
 1                    -3.24282  -9.14996   2.17376 
 1                    -5.29823  -8.1335   -2.20976 
 1                    -1.05408  -9.70647  -3.38149 
 1                    -3.44847  -9.13406  -3.38152 
 1                    -1.24479  -9.62725   2.17377 
 1                     1.04816  -9.65066  -2.20969 
 1                     0.85591  -9.7261    3.34559 
 1                     3.26141  -9.20256   3.34564 
 1                     5.13114  -8.23981   2.17389 
 1                     3.05568  -9.21455  -2.20966 
 1                     6.93101  -6.87602  -3.3814 
 1                     4.99113  -8.39178  -3.38137 
 1                     6.75003  -6.97529   2.17387 
 1                     8.19778  -5.19724  -2.20969 
 1                     8.13691  -5.39434   3.3456 
 1                     9.22759  -3.18731   3.34555 
 1                     9.64079  -1.12524   2.17369 
 1                     9.10791  -3.35562  -2.20974 
 
 Symmetry turned off by external request.
 Stoichiometry    C112H56
 Framework group  C1[X(C112H56)]
 Deg. of freedom   498
 Full point group                 C1      NOp   1
                          Input orientation:                          
 ---------------------------------------------------------------------
 Center     Atomic      Atomic             Coordinates (Angstroms)
 Number     Number       Type             X           Y           Z
 ---------------------------------------------------------------------
      1          6           0        9.537042   -1.520840   -1.216438
      2          6           0        9.624921   -0.830101    0.035568
      3          6           0        9.667444    0.579906   -2.445385
      4          6           0        9.653567   -0.776795   -2.445381
      5          6           0        9.566201    1.326198   -1.216452
      6          6           0        9.639959    0.633819    0.035562
      7          6           0        9.567122    1.402918    1.201566
      8          6           0        9.285228    2.698508   -1.237639
      9          6           0        9.032170    3.428442   -0.071633
     10          6           0        9.252773    2.767969    1.180386
     11          6           0        9.034888    3.488843    2.409341
     12          6           0        8.458590    4.717141    2.409371
     13          6           0        8.410442    4.753851   -0.071595
     14          6           0        8.043525    5.345578    1.180458
     15          6           0        7.194860    6.459995    1.201712
     16          6           0        8.011062    5.415240   -1.237554
     17          6           0        7.135497    6.508663   -1.216301
     18          6           0        6.650175    7.007914    0.035736
     19          6           0        5.574510    7.920609   -2.445200
     20          6           0        6.626520    7.063802   -2.445219
     21          6           0        4.927847    8.306654   -1.216271
     22          6           0        5.515045    7.932448    0.035748
     23          6           0        4.868261    8.354955    1.201740
     24          6           0        3.679774    8.942667   -1.237497
     25          6           0        2.951226    9.199767   -0.071516
     26          6           0        3.605052    8.960315    1.180519
     27          6           0        2.905562    9.239442    2.409443
     28          6           0        1.585966    9.554899    2.409425
     29          6           0        1.527346    9.540155   -0.071532
     30          6           0        0.835899    9.622301    1.180482
     31          6           0       -0.564522    9.653744    1.201677
     32          6           0        0.761290    9.640205   -1.237524
     33          6           0       -0.639487    9.637446   -1.216327
     34          6           0       -1.332473    9.569439    0.035680
     35          6           0       -2.716498    9.296867   -2.445316
     36          6           0       -1.390755    9.585376   -2.445290
     37          6           0       -3.421539    9.032077   -1.216386
     38          6           0       -2.763017    9.258238    0.035654
     39          6           0       -3.496709    9.016116    1.201623
     40          6           0       -4.696802    8.452536   -1.237627
     41          6           0       -5.352077    8.043311   -0.071639
     42          6           0       -4.757438    8.405591    1.180383
     43          6           0       -5.411817    8.032752    2.409303
     44          6           0       -6.480921    7.197371    2.409321
     45          6           0       -6.505734    7.142004   -0.071629
     46          6           0       -7.001046    6.652657    1.180414
     47          6           0       -7.898606    5.577224    1.201660
     48          6           0       -7.061478    6.605303   -1.237603
     49          6           0       -7.932589    5.508331   -1.216351
     50          6           0       -8.311406    4.924149    0.035691
     51          6           0       -8.961442    3.672115   -2.445251
     52          6           0       -8.360336    4.888465   -2.445276
     53          6           0       -9.193998    2.955849   -1.216290
     54          6           0       -8.960039    3.611693    0.035725
     55          6           0       -9.228031    2.887111    1.201732
     56          6           0       -9.536216    1.597511   -1.237460
     57          6           0       -9.624919    0.830099   -0.071449
     58          6           0       -9.537048    1.520846    1.180562
     59          6           0       -9.653582    0.776797    2.409494
     60          6           0       -9.667456   -0.579908    2.409500
     61          6           0       -9.639956   -0.633818   -0.071443
     62          6           0       -9.566204   -1.326204    1.180577
     63          6           0       -9.285228   -2.698509    1.201760
     64          6           0       -9.567111   -1.402916   -1.237444
     65          6           0       -9.252761   -2.767972   -1.216262
     66          6           0       -9.032168   -3.428442    0.035752
     67          6           0       -8.458575   -4.717134   -2.445256
     68          6           0       -9.034869   -3.488838   -2.445227
     69          6           0       -8.043521   -5.345571   -1.216334
     70          6           0       -8.410441   -4.753855    0.035714
     71          6           0       -8.011070   -5.415249    1.201675
     72          6           0       -7.194857   -6.459995   -1.237592
     73          6           0       -6.650177   -7.007918   -0.071617
     74          6           0       -7.135510   -6.508670    1.180424
     75          6           0       -6.626536   -7.063820    2.409331
     76          6           0       -5.574522   -7.920627    2.409314
     77          6           0       -5.515048   -7.932450   -0.071629
     78          6           0       -4.927848   -8.306666    1.180395
     79          6           0       -3.679778   -8.942673    1.201618
     80          6           0       -4.868258   -8.354950   -1.237619
     81          6           0       -3.605044   -8.960309   -1.216396
     82          6           0       -2.951228   -9.199767    0.035635
     83          6           0       -1.585965   -9.554886   -2.445311
     84          6           0       -2.905557   -9.239427   -2.445330
     85          6           0       -0.835905   -9.622295   -1.216358
     86          6           0       -1.527345   -9.540157    0.035651
     87          6           0       -0.761290   -9.640213    1.201645
     88          6           0        0.564522   -9.653742   -1.237557
     89          6           0        1.332474   -9.569439   -0.071563
     90          6           0        0.639482   -9.637454    1.180450
     91          6           0        1.390757   -9.585392    2.409402
     92          6           0        2.716503   -9.296880    2.409429
     93          6           0        2.763014   -9.258236   -0.071537
     94          6           0        3.421547   -9.032080    1.180508
     95          6           0        4.696803   -8.452537    1.201745
     96          6           0        3.496702   -9.016105   -1.237504
     97          6           0        4.757435   -8.405576   -1.216262
     98          6           0        5.352075   -8.043309    0.035755
     99          6           0        6.480905   -7.197354   -2.445210
    100          6           0        5.411803   -8.032731   -2.445193
    101          6           0        7.001035   -6.652652   -1.216294
    102          6           0        6.505736   -7.142002    0.035745
    103          6           0        7.061488   -6.605310    1.201721
    104          6           0        7.898603   -5.577219   -1.237542
    105          6           0        8.311410   -4.924149   -0.071575
    106          6           0        7.932597   -5.508344    1.180472
    107          6           0        8.360358   -4.888479    2.409387
    108          6           0        8.961462   -3.672124    2.409363
    109          6           0        8.960041   -3.611696   -0.071608
    110          6           0        9.194010   -2.955848    1.180412
    111          6           0        9.536222   -1.597515    1.201580
    112          6           0        9.228025   -2.887110   -1.237612
    113          1           0        9.696899    1.132161   -3.381578
    114          1           0        9.671745   -1.329544   -3.381568
    115          1           0        9.662101    0.928628    2.173679
    116          1           0        9.174660    3.169344   -2.209776
    117          1           0        9.291113    2.998724    3.345526
    118          1           0        8.245458    5.227429    3.345583
    119          1           0        6.890914    6.836153    2.173866
    120          1           0        8.302523    5.029309   -2.209702
    121          1           0        5.161172    8.288075   -3.381379
    122          1           0        7.070052    6.733449   -3.381411
    123          1           0        5.298236    8.133508    2.173874
    124          1           0        3.242824    9.149950   -2.209645
    125          1           0        3.448449    9.134065    3.345648
    126          1           0        1.054103    9.706473    3.345619
    127          1           0       -1.048165    9.650662    2.173806
    128          1           0        1.244779    9.627240   -2.209649
    129          1           0       -3.261431    9.202549   -3.381513
    130          1           0       -0.855885    9.726095   -3.381465
    131          1           0       -3.055685    9.214562    2.173775
    132          1           0       -5.131134    8.239810   -2.209771
    133          1           0       -4.991155    8.391778    3.345497
    134          1           0       -6.931013    6.876052    3.345528
    135          1           0       -8.197787    5.197243    2.173805
    136          1           0       -6.750026    6.975275   -2.209755
    137          1           0       -9.227575    3.187285   -3.381425
    138          1           0       -8.136889    5.394351   -3.381473
    139          1           0       -9.107915    3.355624    2.173859
    140          1           0       -9.640784    1.125240   -2.209570
    141          1           0       -9.671750    1.329525    3.345695
    142          1           0       -9.696910   -1.132140    3.345706
    143          1           0       -9.174659   -3.169351    2.173894
    144          1           0       -9.662088   -0.928633   -2.209561
    145          1           0       -8.245434   -5.227442   -3.381455
    146          1           0       -9.291112   -2.998703   -3.381399
    147          1           0       -8.302536   -5.029315    2.173820
    148          1           0       -6.890914   -6.836147   -2.209748
    149          1           0       -7.070047   -6.733475    3.345538
    150          1           0       -5.161201   -8.288081    3.345507
    151          1           0       -3.242823   -9.149959    2.173763
    152          1           0       -5.298228   -8.133505   -2.209756
    153          1           0       -1.054081   -9.706467   -3.381491
    154          1           0       -3.448467   -9.134055   -3.381522
    155          1           0       -1.244785   -9.627247    2.173767
    156          1           0        1.048159   -9.650660   -2.209689
    157          1           0        0.855906   -9.726096    3.345591
    158          1           0        3.261415   -9.202565    3.345639
    159          1           0        5.131141   -8.239810    2.173886
    160          1           0        3.055683   -9.214546   -2.209659
    161          1           0        6.931013   -6.876019   -3.381403
    162          1           0        4.991128   -8.391775   -3.381373
    163          1           0        6.750033   -6.975288    2.173869
    164          1           0        8.197778   -5.197240   -2.209690
    165          1           0        8.136913   -5.394342    3.345597
    166          1           0        9.227586   -3.187315    3.345552
    167          1           0        9.640793   -1.125238    2.173688
    168          1           0        9.107912   -3.355617   -2.209742
 ---------------------------------------------------------------------
 Rotational constants (GHZ):           0.0073344           0.0073332           0.0038583
 Standard basis: 6-311G(d) (5D, 7F)
  2184 basis functions,  3864 primitive gaussians,  2296 cartesian basis functions
   364 alpha electrons      364 beta electrons
       nuclear repulsion energy     16688.9388200101 Hartrees.
 NAtoms=  168 NActive=  168 NUniq=  168 SFac= 1.00D+00 NAtFMM=   60 NAOKFM=T Big=T
 Integral buffers will be    131072 words long.
 Raffenetti 2 integral format.
 Two-electron integral symmetry is turned off.
 One-electron integrals computed using PRISM.
 NBasis=  2184 RedAO= T EigKep=  3.26D-05  NBF=  2184
 NBsUse=  2184 1.00D-06 EigRej= -1.00D+00 NBFU=  2184
 ExpMin= 1.03D-01 ExpMax= 4.56D+03 ExpMxC= 6.82D+02 IAcc=3 IRadAn=         5 AccDes= 0.00D+00
 Harris functional with IExCor=  402 and IRadAn=       5 diagonalized for initial guess.
 HarFok:  IExCor=  402 AccDes= 0.00D+00 IRadAn=         5 IDoV= 1 UseB2=F ITyADJ=14
 ICtDFT=  3500011 ScaDFX=  1.000000  1.000000  1.000000  1.000000
 FoFCou: FMM=F IPFlag=           0 FMFlag=      100000 FMFlg1=        2001
         NFxFlg=           0 DoJE=T BraDBF=F KetDBF=T FulRan=T
         wScrn=  0.000000 ICntrl=       500 IOpCl=  0 I1Cent=   200000004 NGrid=           0
         NMat0=    1 NMatS0=      1 NMatT0=    0 NMatD0=    1 NMtDS0=    0 NMtDT0=    0
 Symmetry not used in FoFCou.
 Requested convergence on RMS density matrix=1.00D-08 within 128 cycles.
 Requested convergence on MAX density matrix=1.00D-06.
 Requested convergence on             energy=1.00D-06.
 No special actions if energy rises.
 Integral accuracy reduced to 1.0D-05 until final iterations.
 Rare condition: small coef for last iteration:  0.000D+00
 Rare condition: small coef for last iteration:  0.000D+00
 Problem detected with inexpensive integrals.
 Switching to full accuracy and repeating last cycle.
 SCF Done:  E(RB3LYP) =  -4302.76557626     A.U. after   17 cycles
            NFock= 17  Conv=0.45D-08     -V/T= 2.0044
 Hyperfine terms turned off by default for NAtoms > 100.

 **********************************************************************

            Population analysis using the SCF Density.

 **********************************************************************

 Alpha  occ. eigenvalues --  -10.19498 -10.19498 -10.19498 -10.19498 -10.19498
 Alpha  occ. eigenvalues --  -10.19498 -10.19498 -10.19497 -10.19497 -10.19497
 Alpha  occ. eigenvalues --  -10.19497 -10.19497 -10.19496 -10.19496 -10.19466
 Alpha  occ. eigenvalues --  -10.19466 -10.19465 -10.19465 -10.19465 -10.19465
 Alpha  occ. eigenvalues --  -10.19465 -10.19465 -10.19465 -10.19465 -10.19465
 Alpha  occ. eigenvalues --  -10.19465 -10.19464 -10.19464 -10.19222 -10.19222
 Alpha  occ. eigenvalues --  -10.19222 -10.19222 -10.19221 -10.19221 -10.19221
 Alpha  occ. eigenvalues --  -10.19221 -10.19221 -10.19221 -10.19221 -10.19221
 Alpha  occ. eigenvalues --  -10.19221 -10.19221 -10.19221 -10.19221 -10.19221
 Alpha  occ. eigenvalues --  -10.19220 -10.19220 -10.19220 -10.19220 -10.19220
 Alpha  occ. eigenvalues --  -10.19220 -10.19220 -10.19220 -10.19219 -10.19219
 Alpha  occ. eigenvalues --  -10.19219 -10.18302 -10.18302 -10.18302 -10.18302
 Alpha  occ. eigenvalues --  -10.18302 -10.18302 -10.18302 -10.18302 -10.18302
 Alpha  occ. eigenvalues --  -10.18302 -10.18302 -10.18302 -10.18302 -10.18301
 Alpha  occ. eigenvalues --  -10.18301 -10.18301 -10.18301 -10.18301 -10.18301
 Alpha  occ. eigenvalues --  -10.18301 -10.18300 -10.18300 -10.18300 -10.18300
 Alpha  occ. eigenvalues --  -10.18300 -10.18300 -10.18300 -10.18300 -10.18295
 Alpha  occ. eigenvalues --  -10.18295 -10.18295 -10.18295 -10.18295 -10.18295
 Alpha  occ. eigenvalues --  -10.18295 -10.18294 -10.18294 -10.18294 -10.18294
 Alpha  occ. eigenvalues --  -10.18294 -10.18294 -10.18294 -10.18225 -10.18225
 Alpha  occ. eigenvalues --  -10.18225 -10.18225 -10.18225 -10.18225 -10.18225
 Alpha  occ. eigenvalues --  -10.18225 -10.18225 -10.18225 -10.18225 -10.18225
 Alpha  occ. eigenvalues --  -10.18225 -10.18225  -0.90323  -0.90216  -0.90216
 Alpha  occ. eigenvalues --   -0.89895  -0.89894  -0.89364  -0.89364  -0.88631
 Alpha  occ. eigenvalues --   -0.88631  -0.87710  -0.87710  -0.86629  -0.86629
 Alpha  occ. eigenvalues --   -0.85571  -0.85265  -0.84185  -0.84185  -0.83071
 Alpha  occ. eigenvalues --   -0.83071  -0.82114  -0.82114  -0.81237  -0.81237
 Alpha  occ. eigenvalues --   -0.80377  -0.80353  -0.80353  -0.80109  -0.80109
 Alpha  occ. eigenvalues --   -0.79463  -0.79463  -0.79274  -0.79274  -0.78914
 Alpha  occ. eigenvalues --   -0.77884  -0.77884  -0.77344  -0.76724  -0.76724
 Alpha  occ. eigenvalues --   -0.76107  -0.76107  -0.75661  -0.75661  -0.74309
 Alpha  occ. eigenvalues --   -0.74309  -0.73886  -0.73886  -0.73135  -0.73135
 Alpha  occ. eigenvalues --   -0.71993  -0.71993  -0.71798  -0.71798  -0.71064
 Alpha  occ. eigenvalues --   -0.71064  -0.70671  -0.70458  -0.67509  -0.66271
 Alpha  occ. eigenvalues --   -0.66271  -0.65777  -0.65392  -0.65392  -0.64609
 Alpha  occ. eigenvalues --   -0.64609  -0.64523  -0.64523  -0.63674  -0.63674
 Alpha  occ. eigenvalues --   -0.63596  -0.63596  -0.62829  -0.62569  -0.62569
 Alpha  occ. eigenvalues --   -0.61870  -0.61870  -0.61353  -0.61353  -0.60800
 Alpha  occ. eigenvalues --   -0.60800  -0.59711  -0.59711  -0.58546  -0.58546
 Alpha  occ. eigenvalues --   -0.57960  -0.57821  -0.57821  -0.57287  -0.57287
 Alpha  occ. eigenvalues --   -0.57128  -0.57128  -0.56542  -0.55437  -0.55437
 Alpha  occ. eigenvalues --   -0.54060  -0.53574  -0.53394  -0.53394  -0.53318
 Alpha  occ. eigenvalues --   -0.53318  -0.53074  -0.53074  -0.51956  -0.51956
 Alpha  occ. eigenvalues --   -0.51377  -0.51377  -0.51029  -0.51029  -0.50642
 Alpha  occ. eigenvalues --   -0.50642  -0.50466  -0.50466  -0.50319  -0.48224
 Alpha  occ. eigenvalues --   -0.48224  -0.48089  -0.48028  -0.48028  -0.47813
 Alpha  occ. eigenvalues --   -0.47812  -0.47315  -0.47315  -0.47245  -0.47245
 Alpha  occ. eigenvalues --   -0.46358  -0.46358  -0.46242  -0.46242  -0.45866
 Alpha  occ. eigenvalues --   -0.45737  -0.45737  -0.44847  -0.44847  -0.44613
 Alpha  occ. eigenvalues --   -0.44428  -0.44428  -0.44183  -0.44164  -0.44164
 Alpha  occ. eigenvalues --   -0.43884  -0.43884  -0.43601  -0.43601  -0.43580
 Alpha  occ. eigenvalues --   -0.43463  -0.43463  -0.43190  -0.43190  -0.43156
 Alpha  occ. eigenvalues --   -0.43156  -0.43094  -0.43094  -0.42554  -0.42427
 Alpha  occ. eigenvalues --   -0.42427  -0.42103  -0.42103  -0.42011  -0.42011
 Alpha  occ. eigenvalues --   -0.41735  -0.41731  -0.41412  -0.41412  -0.40977
 Alpha  occ. eigenvalues --   -0.40977  -0.40950  -0.40950  -0.40929  -0.40919
 Alpha  occ. eigenvalues --   -0.40919  -0.40522  -0.40522  -0.40265  -0.40265
 Alpha  occ. eigenvalues --   -0.40235  -0.40235  -0.39796  -0.39796  -0.39635
 Alpha  occ. eigenvalues --   -0.39635  -0.39337  -0.39337  -0.39078  -0.37899
 Alpha  occ. eigenvalues --   -0.37899  -0.37549  -0.37549  -0.37298  -0.36831
 Alpha  occ. eigenvalues --   -0.36831  -0.36565  -0.36565  -0.36474  -0.35911
 Alpha  occ. eigenvalues --   -0.35881  -0.35881  -0.35287  -0.35287  -0.34833
 Alpha  occ. eigenvalues --   -0.34833  -0.34831  -0.34831  -0.34353  -0.34353
 Alpha  occ. eigenvalues --   -0.33937  -0.33937  -0.33842  -0.33842  -0.33830
 Alpha  occ. eigenvalues --   -0.33830  -0.33663  -0.33061  -0.33061  -0.32848
 Alpha  occ. eigenvalues --   -0.32848  -0.32656  -0.32656  -0.32506  -0.32018
 Alpha  occ. eigenvalues --   -0.32018  -0.31763  -0.31334  -0.31334  -0.31050
 Alpha  occ. eigenvalues --   -0.31050  -0.30031  -0.30031  -0.29966  -0.29966
 Alpha  occ. eigenvalues --   -0.29113  -0.28095  -0.28076  -0.28076  -0.27136
 Alpha  occ. eigenvalues --   -0.27136  -0.25918  -0.25918  -0.25800  -0.25800
 Alpha  occ. eigenvalues --   -0.23796  -0.23796  -0.23015  -0.23015  -0.22460
 Alpha  occ. eigenvalues --   -0.22460  -0.21108  -0.21108  -0.21019  -0.21019
 Alpha  occ. eigenvalues --   -0.20104  -0.20078  -0.20078  -0.19678
 Alpha virt. eigenvalues --   -0.08274  -0.07763  -0.07370  -0.07370  -0.07326
 Alpha virt. eigenvalues --   -0.07326  -0.06372  -0.06372  -0.05277  -0.05277
 Alpha virt. eigenvalues --   -0.05124  -0.05124  -0.04151  -0.04151  -0.01826
 Alpha virt. eigenvalues --   -0.01825  -0.01613  -0.01613  -0.01019  -0.01019
 Alpha virt. eigenvalues --   -0.00626   0.00484   0.00484   0.02482   0.02482
 Alpha virt. eigenvalues --    0.02566   0.02948   0.02948   0.03366   0.03519
 Alpha virt. eigenvalues --    0.03519   0.03815   0.03815   0.03819   0.03819
 Alpha virt. eigenvalues --    0.03958   0.03959   0.04279   0.04446   0.04535
 Alpha virt. eigenvalues --    0.04535   0.04576   0.04576   0.04756   0.04756
 Alpha virt. eigenvalues --    0.04819   0.04819   0.05296   0.05296   0.06115
 Alpha virt. eigenvalues --    0.06115   0.06161   0.06162   0.06723   0.06723
 Alpha virt. eigenvalues --    0.06825   0.06825   0.07275   0.07275   0.07844
 Alpha virt. eigenvalues --    0.07844   0.08115   0.08115   0.08481   0.08481
 Alpha virt. eigenvalues --    0.08615   0.09311   0.09628   0.09688   0.09688
 Alpha virt. eigenvalues --    0.10285   0.10427   0.10427   0.11287   0.11483
 Alpha virt. eigenvalues --    0.11483   0.11512   0.11512   0.12463   0.12463
 Alpha virt. eigenvalues --    0.12515   0.12515   0.12709   0.13023   0.13023
 Alpha virt. eigenvalues --    0.13734   0.13734   0.14636   0.14636   0.15154
 Alpha virt. eigenvalues --    0.15155   0.16473   0.16473   0.17573   0.17574
 Alpha virt. eigenvalues --    0.17746   0.17747   0.17871   0.17871   0.17887
 Alpha virt. eigenvalues --    0.17987   0.17987   0.18226   0.18226   0.18326
 Alpha virt. eigenvalues --    0.19039   0.19039   0.19677   0.19678   0.20252
 Alpha virt. eigenvalues --    0.20253   0.20510   0.21907   0.21907   0.22260
 Alpha virt. eigenvalues --    0.22260   0.22428   0.22428   0.22448   0.22448
 Alpha virt. eigenvalues --    0.22516   0.22516   0.22570   0.22570   0.22715
 Alpha virt. eigenvalues --    0.23076   0.23362   0.23362   0.23420   0.24104
 Alpha virt. eigenvalues --    0.24345   0.24345   0.24348   0.24348   0.24407
 Alpha virt. eigenvalues --    0.24407   0.24570   0.24570   0.24926   0.24926
 Alpha virt. eigenvalues --    0.25687   0.25687   0.26491   0.26598   0.26598
 Alpha virt. eigenvalues --    0.26608   0.26608   0.26677   0.26677   0.26940
 Alpha virt. eigenvalues --    0.26941   0.27027   0.27028   0.27623   0.27697
 Alpha virt. eigenvalues --    0.27737   0.27737   0.27740   0.27741   0.27941
 Alpha virt. eigenvalues --    0.28663   0.28663   0.29005   0.29005   0.29966
 Alpha virt. eigenvalues --    0.29966   0.29970   0.29970   0.29974   0.29974
 Alpha virt. eigenvalues --    0.29989   0.29989   0.30499   0.30499   0.30875
 Alpha virt. eigenvalues --    0.30875   0.31160   0.31160   0.31449   0.31788
 Alpha virt. eigenvalues --    0.31788   0.32706   0.33366   0.33367   0.33565
 Alpha virt. eigenvalues --    0.33744   0.33745   0.33847   0.33847   0.34385
 Alpha virt. eigenvalues --    0.34861   0.34861   0.35171   0.35171   0.35637
 Alpha virt. eigenvalues --    0.35741   0.35741   0.35824   0.35825   0.36116
 Alpha virt. eigenvalues --    0.36117   0.36144   0.36195   0.36195   0.36313
 Alpha virt. eigenvalues --    0.36313   0.36570   0.36570   0.36574   0.36574
 Alpha virt. eigenvalues --    0.36696   0.36757   0.36757   0.37232   0.37233
 Alpha virt. eigenvalues --    0.37246   0.37247   0.37428   0.37429   0.37693
 Alpha virt. eigenvalues --    0.37693   0.37932   0.37932   0.37963   0.38029
 Alpha virt. eigenvalues --    0.38029   0.38030   0.38030   0.38147   0.38147
 Alpha virt. eigenvalues --    0.38508   0.38508   0.38564   0.38564   0.39119
 Alpha virt. eigenvalues --    0.39189   0.39326   0.39326   0.39436   0.39436
 Alpha virt. eigenvalues --    0.39683   0.39792   0.39793   0.39917   0.39917
 Alpha virt. eigenvalues --    0.40185   0.40185   0.40255   0.40256   0.40344
 Alpha virt. eigenvalues --    0.40344   0.40520   0.40719   0.40980   0.40980
 Alpha virt. eigenvalues --    0.41036   0.41036   0.41113   0.41113   0.41114
 Alpha virt. eigenvalues --    0.41114   0.41426   0.41426   0.41535   0.42196
 Alpha virt. eigenvalues --    0.42196   0.42295   0.42295   0.42303   0.42303
 Alpha virt. eigenvalues --    0.42417   0.42552   0.42552   0.42714   0.42721
 Alpha virt. eigenvalues --    0.42721   0.42959   0.42959   0.43091   0.43091
 Alpha virt. eigenvalues --    0.43204   0.43205   0.43206   0.43206   0.43403
 Alpha virt. eigenvalues --    0.43403   0.43842   0.43925   0.44106   0.44106
 Alpha virt. eigenvalues --    0.44534   0.44562   0.44562   0.44759   0.44759
 Alpha virt. eigenvalues --    0.44813   0.44814   0.45108   0.45109   0.45162
 Alpha virt. eigenvalues --    0.45162   0.45222   0.45374   0.45374   0.45377
 Alpha virt. eigenvalues --    0.45378   0.45475   0.45475   0.45844   0.45880
 Alpha virt. eigenvalues --    0.45881   0.46015   0.46015   0.46058   0.46059
 Alpha virt. eigenvalues --    0.46163   0.46163   0.46374   0.46374   0.46383
 Alpha virt. eigenvalues --    0.46383   0.46475   0.46916   0.46916   0.47037
 Alpha virt. eigenvalues --    0.47037   0.47283   0.47283   0.47351   0.47352
 Alpha virt. eigenvalues --    0.47512   0.47517   0.47550   0.47550   0.47851
 Alpha virt. eigenvalues --    0.47962   0.48143   0.48144   0.48364   0.48368
 Alpha virt. eigenvalues --    0.48368   0.48473   0.48473   0.48518   0.48519
 Alpha virt. eigenvalues --    0.48524   0.48524   0.48791   0.48791   0.48881
 Alpha virt. eigenvalues --    0.48881   0.48973   0.48973   0.49732   0.49733
 Alpha virt. eigenvalues --    0.49756   0.49756   0.50187   0.50482   0.50482
 Alpha virt. eigenvalues --    0.50645   0.50645   0.50884   0.50884   0.51138
 Alpha virt. eigenvalues --    0.51139   0.51218   0.51219   0.51270   0.51271
 Alpha virt. eigenvalues --    0.51714   0.51715   0.52466   0.52659   0.52705
 Alpha virt. eigenvalues --    0.52705   0.52885   0.52886   0.53079   0.53080
 Alpha virt. eigenvalues --    0.53132   0.53138   0.53139   0.53144   0.53144
 Alpha virt. eigenvalues --    0.53732   0.53754   0.53754   0.54151   0.54152
 Alpha virt. eigenvalues --    0.54777   0.54777   0.55155   0.55155   0.55282
 Alpha virt. eigenvalues --    0.55282   0.55413   0.55413   0.55703   0.55736
 Alpha virt. eigenvalues --    0.55736   0.55981   0.55981   0.57896   0.57896
 Alpha virt. eigenvalues --    0.58042   0.58300   0.58300   0.58899   0.58899
 Alpha virt. eigenvalues --    0.58906   0.58906   0.58932   0.59066   0.59066
 Alpha virt. eigenvalues --    0.59337   0.59359   0.59359   0.59404   0.59405
 Alpha virt. eigenvalues --    0.60257   0.60257   0.60284   0.60284   0.60414
 Alpha virt. eigenvalues --    0.60491   0.60492   0.60727   0.60727   0.60824
 Alpha virt. eigenvalues --    0.60824   0.61121   0.61122   0.61379   0.61945
 Alpha virt. eigenvalues --    0.61945   0.61949   0.62441   0.62441   0.62564
 Alpha virt. eigenvalues --    0.62564   0.62626   0.62626   0.63071   0.63270
 Alpha virt. eigenvalues --    0.63270   0.63625   0.63625   0.63897   0.63897
 Alpha virt. eigenvalues --    0.64244   0.64459   0.64618   0.64618   0.64990
 Alpha virt. eigenvalues --    0.64991   0.65151   0.65151   0.65327   0.65327
 Alpha virt. eigenvalues --    0.65531   0.65531   0.66528   0.66529   0.66802
 Alpha virt. eigenvalues --    0.66802   0.67065   0.67703   0.67704   0.67704
 Alpha virt. eigenvalues --    0.67705   0.68035   0.68035   0.68607   0.68608
 Alpha virt. eigenvalues --    0.68924   0.69004   0.69005   0.69085   0.69086
 Alpha virt. eigenvalues --    0.69210   0.69211   0.69866   0.70084   0.70084
 Alpha virt. eigenvalues --    0.71038   0.71038   0.71594   0.71594   0.71636
 Alpha virt. eigenvalues --    0.71636   0.71652   0.71653   0.71944   0.72560
 Alpha virt. eigenvalues --    0.72562   0.72582   0.72584   0.73053   0.73251
 Alpha virt. eigenvalues --    0.73251   0.73267   0.73267   0.73408   0.74633
 Alpha virt. eigenvalues --    0.74633   0.74698   0.74699   0.74892   0.75070
 Alpha virt. eigenvalues --    0.75143   0.75144   0.75288   0.75289   0.75445
 Alpha virt. eigenvalues --    0.75446   0.75448   0.75448   0.76616   0.76616
 Alpha virt. eigenvalues --    0.77153   0.77153   0.77248   0.77248   0.77790
 Alpha virt. eigenvalues --    0.77790   0.77980   0.77980   0.78131   0.78132
 Alpha virt. eigenvalues --    0.78414   0.78415   0.78537   0.78717   0.78717
 Alpha virt. eigenvalues --    0.78864   0.78864   0.79362   0.79393   0.79394
 Alpha virt. eigenvalues --    0.79457   0.79696   0.79696   0.80009   0.80009
 Alpha virt. eigenvalues --    0.80025   0.80145   0.80161   0.80162   0.80753
 Alpha virt. eigenvalues --    0.80753   0.80799   0.80800   0.81457   0.81457
 Alpha virt. eigenvalues --    0.81679   0.81681   0.82579   0.82580   0.82701
 Alpha virt. eigenvalues --    0.82702   0.82702   0.82702   0.82811   0.82811
 Alpha virt. eigenvalues --    0.82954   0.82954   0.83123   0.83707   0.83707
 Alpha virt. eigenvalues --    0.83927   0.83928   0.83951   0.83952   0.84026
 Alpha virt. eigenvalues --    0.84026   0.84697   0.84697   0.84862   0.85289
 Alpha virt. eigenvalues --    0.85291   0.85326   0.85677   0.85795   0.85796
 Alpha virt. eigenvalues --    0.86125   0.86126   0.86224   0.86566   0.86637
 Alpha virt. eigenvalues --    0.86638   0.86904   0.87238   0.87238   0.87469
 Alpha virt. eigenvalues --    0.87469   0.87722   0.87723   0.87909   0.87911
 Alpha virt. eigenvalues --    0.87922   0.88043   0.88044   0.88166   0.88167
 Alpha virt. eigenvalues --    0.88442   0.88442   0.89011   0.89012   0.89334
 Alpha virt. eigenvalues --    0.89334   0.90533   0.90533   0.90593   0.90648
 Alpha virt. eigenvalues --    0.90648   0.90717   0.91064   0.91064   0.91197
 Alpha virt. eigenvalues --    0.91198   0.91961   0.91963   0.92641   0.92641
 Alpha virt. eigenvalues --    0.92932   0.92932   0.92968   0.93474   0.93474
 Alpha virt. eigenvalues --    0.93524   0.93524   0.94097   0.94097   0.94492
 Alpha virt. eigenvalues --    0.94492   0.94613   0.94616   0.94831   0.94845
 Alpha virt. eigenvalues --    0.94875   0.94876   0.95540   0.95541   0.96285
 Alpha virt. eigenvalues --    0.96285   0.96764   0.97009   0.97010   0.97529
 Alpha virt. eigenvalues --    0.97530   0.98190   0.98190   0.98691   0.98692
 Alpha virt. eigenvalues --    0.99568   0.99569   0.99777   0.99778   0.99886
 Alpha virt. eigenvalues --    0.99887   1.00026   1.00374   1.00376   1.00683
 Alpha virt. eigenvalues --    1.00683   1.00823   1.00823   1.00921   1.01019
 Alpha virt. eigenvalues --    1.01320   1.01323   1.02639   1.02639   1.03013
 Alpha virt. eigenvalues --    1.03015   1.03367   1.03371   1.03422   1.03422
 Alpha virt. eigenvalues --    1.03602   1.04060   1.04080   1.04120   1.04120
 Alpha virt. eigenvalues --    1.04183   1.04184   1.05218   1.05219   1.07101
 Alpha virt. eigenvalues --    1.07102   1.07221   1.07224   1.07464   1.07465
 Alpha virt. eigenvalues --    1.07726   1.07726   1.07727   1.08049   1.08051
 Alpha virt. eigenvalues --    1.08905   1.08906   1.09116   1.09118   1.09650
 Alpha virt. eigenvalues --    1.09651   1.10054   1.10172   1.10173   1.10893
 Alpha virt. eigenvalues --    1.10893   1.11143   1.11419   1.11420   1.12569
 Alpha virt. eigenvalues --    1.12570   1.12573   1.12574   1.12695   1.12696
 Alpha virt. eigenvalues --    1.13395   1.13655   1.13655   1.14641   1.14642
 Alpha virt. eigenvalues --    1.14814   1.14815   1.15002   1.15004   1.15050
 Alpha virt. eigenvalues --    1.15370   1.15392   1.15394   1.15395   1.15781
 Alpha virt. eigenvalues --    1.15781   1.15869   1.15872   1.16218   1.16219
 Alpha virt. eigenvalues --    1.16220   1.16221   1.16949   1.16951   1.17000
 Alpha virt. eigenvalues --    1.17044   1.17045   1.17275   1.17277   1.17800
 Alpha virt. eigenvalues --    1.17800   1.18518   1.18519   1.18758   1.18762
 Alpha virt. eigenvalues --    1.18923   1.18924   1.19095   1.19097   1.19405
 Alpha virt. eigenvalues --    1.19406   1.19415   1.19415   1.19606   1.19607
 Alpha virt. eigenvalues --    1.19649   1.20085   1.20085   1.20182   1.20422
 Alpha virt. eigenvalues --    1.20422   1.20466   1.20470   1.20878   1.20970
 Alpha virt. eigenvalues --    1.21021   1.21024   1.21196   1.21244   1.21245
 Alpha virt. eigenvalues --    1.22003   1.22004   1.22482   1.22483   1.23148
 Alpha virt. eigenvalues --    1.23150   1.23314   1.23314   1.23412   1.23414
 Alpha virt. eigenvalues --    1.24513   1.24514   1.24812   1.24812   1.26499
 Alpha virt. eigenvalues --    1.26501   1.26694   1.27219   1.28393   1.28451
 Alpha virt. eigenvalues --    1.28453   1.28620   1.28620   1.29341   1.29341
 Alpha virt. eigenvalues --    1.29784   1.29785   1.30270   1.30270   1.30458
 Alpha virt. eigenvalues --    1.30753   1.30753   1.31150   1.31151   1.31563
 Alpha virt. eigenvalues --    1.31564   1.31754   1.31755   1.31821   1.31821
 Alpha virt. eigenvalues --    1.31850   1.31852   1.33032   1.33033   1.33174
 Alpha virt. eigenvalues --    1.33175   1.33181   1.33183   1.33770   1.33879
 Alpha virt. eigenvalues --    1.33880   1.34093   1.34093   1.34689   1.34905
 Alpha virt. eigenvalues --    1.35467   1.35468   1.35868   1.35870   1.38557
 Alpha virt. eigenvalues --    1.39560   1.39570   1.39674   1.39942   1.39942
 Alpha virt. eigenvalues --    1.40017   1.40017   1.40769   1.40769   1.41200
 Alpha virt. eigenvalues --    1.41590   1.41590   1.42019   1.42020   1.42069
 Alpha virt. eigenvalues --    1.42069   1.42198   1.42199   1.43016   1.43017
 Alpha virt. eigenvalues --    1.43283   1.43284   1.43835   1.43836   1.44027
 Alpha virt. eigenvalues --    1.44028   1.44060   1.44060   1.45461   1.45643
 Alpha virt. eigenvalues --    1.45643   1.46552   1.46552   1.46786   1.46812
 Alpha virt. eigenvalues --    1.46813   1.47336   1.47337   1.47348   1.47395
 Alpha virt. eigenvalues --    1.47396   1.47432   1.47432   1.47665   1.47665
 Alpha virt. eigenvalues --    1.47757   1.47757   1.48456   1.48456   1.49540
 Alpha virt. eigenvalues --    1.49540   1.49637   1.49638   1.49773   1.49773
 Alpha virt. eigenvalues --    1.50042   1.50531   1.50741   1.50742   1.51028
 Alpha virt. eigenvalues --    1.51029   1.51283   1.51283   1.52049   1.52049
 Alpha virt. eigenvalues --    1.52051   1.52051   1.52074   1.52157   1.52158
 Alpha virt. eigenvalues --    1.54229   1.54229   1.54437   1.54438   1.54811
 Alpha virt. eigenvalues --    1.54985   1.54986   1.55194   1.55327   1.55328
 Alpha virt. eigenvalues --    1.55430   1.55430   1.55740   1.55741   1.55770
 Alpha virt. eigenvalues --    1.55771   1.55956   1.55956   1.56206   1.56221
 Alpha virt. eigenvalues --    1.56222   1.56249   1.56250   1.56359   1.56360
 Alpha virt. eigenvalues --    1.58402   1.58402   1.59474   1.59980   1.59980
 Alpha virt. eigenvalues --    1.60161   1.60162   1.60347   1.60347   1.60503
 Alpha virt. eigenvalues --    1.60932   1.60933   1.61386   1.61738   1.61739
 Alpha virt. eigenvalues --    1.61825   1.61825   1.63450   1.63647   1.63647
 Alpha virt. eigenvalues --    1.63999   1.63999   1.64575   1.64756   1.64757
 Alpha virt. eigenvalues --    1.65614   1.65615   1.65623   1.65624   1.66390
 Alpha virt. eigenvalues --    1.66391   1.67240   1.67240   1.67656   1.67656
 Alpha virt. eigenvalues --    1.67682   1.67781   1.67967   1.67967   1.68601
 Alpha virt. eigenvalues --    1.68601   1.70472   1.70473   1.70711   1.70712
 Alpha virt. eigenvalues --    1.72602   1.72976   1.72976   1.73380   1.73380
 Alpha virt. eigenvalues --    1.73429   1.73429   1.73921   1.73923   1.74315
 Alpha virt. eigenvalues --    1.74316   1.75222   1.75223   1.75738   1.75738
 Alpha virt. eigenvalues --    1.76236   1.76274   1.76590   1.76591   1.77002
 Alpha virt. eigenvalues --    1.77003   1.77110   1.77111   1.77369   1.77858
 Alpha virt. eigenvalues --    1.77859   1.78331   1.78331   1.78845   1.79355
 Alpha virt. eigenvalues --    1.79355   1.79377   1.79378   1.79615   1.79615
 Alpha virt. eigenvalues --    1.80514   1.80514   1.80901   1.80901   1.80994
 Alpha virt. eigenvalues --    1.81241   1.81241   1.81479   1.81504   1.81505
 Alpha virt. eigenvalues --    1.82121   1.82121   1.83355   1.83355   1.83671
 Alpha virt. eigenvalues --    1.83713   1.83713   1.83838   1.83838   1.84187
 Alpha virt. eigenvalues --    1.84187   1.84527   1.84528   1.84808   1.84808
 Alpha virt. eigenvalues --    1.85166   1.85166   1.86983   1.86983   1.87066
 Alpha virt. eigenvalues --    1.87095   1.87096   1.87147   1.87153   1.87154
 Alpha virt. eigenvalues --    1.87404   1.87405   1.87451   1.87522   1.87523
 Alpha virt. eigenvalues --    1.87683   1.87683   1.87724   1.87725   1.88065
 Alpha virt. eigenvalues --    1.88065   1.88496   1.88496   1.88673   1.88674
 Alpha virt. eigenvalues --    1.89091   1.90383   1.90384   1.91558   1.91558
 Alpha virt. eigenvalues --    1.91855   1.92125   1.92125   1.92540   1.92541
 Alpha virt. eigenvalues --    1.92788   1.92941   1.92942   1.92988   1.92988
 Alpha virt. eigenvalues --    1.93374   1.93448   1.93449   1.93735   1.93856
 Alpha virt. eigenvalues --    1.93856   1.93906   1.93906   1.93921   1.93921
 Alpha virt. eigenvalues --    1.94732   1.94732   1.94942   1.94962   1.94962
 Alpha virt. eigenvalues --    1.95269   1.95271   1.95293   1.95293   1.95444
 Alpha virt. eigenvalues --    1.95444   1.95841   1.95880   1.95880   1.96169
 Alpha virt. eigenvalues --    1.96169   1.98404   1.98405   1.98921   1.98921
 Alpha virt. eigenvalues --    1.99002   1.99004   1.99819   1.99946   1.99947
 Alpha virt. eigenvalues --    2.01156   2.01157   2.01919   2.01920   2.02191
 Alpha virt. eigenvalues --    2.02627   2.02694   2.02694   2.03064   2.03065
 Alpha virt. eigenvalues --    2.03135   2.03135   2.03601   2.03601   2.03752
 Alpha virt. eigenvalues --    2.03752   2.03816   2.03817   2.04050   2.05390
 Alpha virt. eigenvalues --    2.05390   2.06260   2.06260   2.06263   2.06265
 Alpha virt. eigenvalues --    2.07580   2.07581   2.08781   2.09492   2.09492
 Alpha virt. eigenvalues --    2.09880   2.10562   2.10562   2.11270   2.11804
 Alpha virt. eigenvalues --    2.11805   2.13474   2.13474   2.13523   2.13524
 Alpha virt. eigenvalues --    2.13587   2.13588   2.15270   2.16352   2.16352
 Alpha virt. eigenvalues --    2.16724   2.16724   2.17576   2.18699   2.18700
 Alpha virt. eigenvalues --    2.19789   2.19789   2.20448   2.20450   2.20640
 Alpha virt. eigenvalues --    2.20641   2.21809   2.22377   2.22377   2.22852
 Alpha virt. eigenvalues --    2.22853   2.23895   2.23896   2.23964   2.23966
 Alpha virt. eigenvalues --    2.25146   2.25147   2.25462   2.25463   2.25825
 Alpha virt. eigenvalues --    2.25825   2.26296   2.26328   2.26749   2.26750
 Alpha virt. eigenvalues --    2.28982   2.29336   2.29336   2.30253   2.30253
 Alpha virt. eigenvalues --    2.30274   2.30276   2.30924   2.30924   2.30955
 Alpha virt. eigenvalues --    2.30956   2.31219   2.31220   2.31705   2.31712
 Alpha virt. eigenvalues --    2.31713   2.31779   2.31779   2.31812   2.32036
 Alpha virt. eigenvalues --    2.32036   2.32078   2.32078   2.32261   2.32262
 Alpha virt. eigenvalues --    2.33298   2.33299   2.33474   2.33607   2.33609
 Alpha virt. eigenvalues --    2.33893   2.33969   2.34068   2.34069   2.34562
 Alpha virt. eigenvalues --    2.34562   2.34596   2.34596   2.34985   2.34986
 Alpha virt. eigenvalues --    2.35373   2.35374   2.38254   2.38254   2.38638
 Alpha virt. eigenvalues --    2.38639   2.39523   2.39524   2.39875   2.39875
 Alpha virt. eigenvalues --    2.40031   2.40031   2.40331   2.40529   2.40844
 Alpha virt. eigenvalues --    2.40845   2.41008   2.41008   2.42041   2.42139
 Alpha virt. eigenvalues --    2.42140   2.43585   2.43585   2.44781   2.44781
 Alpha virt. eigenvalues --    2.45989   2.46568   2.46569   2.46829   2.46829
 Alpha virt. eigenvalues --    2.48244   2.48245   2.48320   2.48321   2.49021
 Alpha virt. eigenvalues --    2.49310   2.49310   2.50059   2.50101   2.50101
 Alpha virt. eigenvalues --    2.50115   2.50115   2.50270   2.50271   2.50910
 Alpha virt. eigenvalues --    2.50912   2.50937   2.50938   2.51723   2.51724
 Alpha virt. eigenvalues --    2.52040   2.52142   2.52207   2.52207   2.52767
 Alpha virt. eigenvalues --    2.52767   2.53106   2.53106   2.56321   2.56792
 Alpha virt. eigenvalues --    2.56792   2.56842   2.56842   2.56912   2.56913
 Alpha virt. eigenvalues --    2.57001   2.57008   2.57008   2.57081   2.57081
 Alpha virt. eigenvalues --    2.57136   2.57137   2.58227   2.58228   2.58260
 Alpha virt. eigenvalues --    2.58261   2.58369   2.58720   2.58721   2.58777
 Alpha virt. eigenvalues --    2.58953   2.58954   2.59379   2.59390   2.59390
 Alpha virt. eigenvalues --    2.59538   2.59538   2.59562   2.59562   2.60834
 Alpha virt. eigenvalues --    2.60834   2.62479   2.62481   2.63370   2.63370
 Alpha virt. eigenvalues --    2.64079   2.64079   2.64550   2.64550   2.64710
 Alpha virt. eigenvalues --    2.65017   2.65018   2.65542   2.65543   2.66033
 Alpha virt. eigenvalues --    2.66166   2.66313   2.66315   2.66971   2.66972
 Alpha virt. eigenvalues --    2.68844   2.68844   2.69236   2.69236   2.70561
 Alpha virt. eigenvalues --    2.70924   2.70925   2.71291   2.71292   2.71567
 Alpha virt. eigenvalues --    2.71567   2.72552   2.72552   2.72575   2.72576
 Alpha virt. eigenvalues --    2.74083   2.74084   2.74145   2.74145   2.74320
 Alpha virt. eigenvalues --    2.74321   2.74485   2.74500   2.74501   2.75229
 Alpha virt. eigenvalues --    2.75599   2.75599   2.76805   2.76805   2.77172
 Alpha virt. eigenvalues --    2.77173   2.77419   2.77452   2.77453   2.78052
 Alpha virt. eigenvalues --    2.78053   2.79038   2.79039   2.79135   2.79135
 Alpha virt. eigenvalues --    2.79836   2.79836   2.80142   2.81150   2.81171
 Alpha virt. eigenvalues --    2.81171   2.82180   2.82181   2.82438   2.83515
 Alpha virt. eigenvalues --    2.83515   2.86182   2.86182   2.86604   2.86820
 Alpha virt. eigenvalues --    2.86821   2.87103   2.87104   2.87153   2.87276
 Alpha virt. eigenvalues --    2.87279   2.88299   2.88299   2.88713   2.88714
 Alpha virt. eigenvalues --    2.88918   2.88919   2.91370   2.91370   2.92926
 Alpha virt. eigenvalues --    2.92927   2.93830   2.93831   2.94294   2.94465
 Alpha virt. eigenvalues --    2.94465   2.95110   2.95110   2.95307   2.95307
 Alpha virt. eigenvalues --    2.95345   2.95347   2.97579   2.97580   2.98623
 Alpha virt. eigenvalues --    2.98623   2.99055   2.99220   2.99220   2.99461
 Alpha virt. eigenvalues --    2.99775   2.99775   3.00739   3.01618   3.01619
 Alpha virt. eigenvalues --    3.02243   3.03417   3.03417   3.03555   3.03556
 Alpha virt. eigenvalues --    3.04350   3.04351   3.06841   3.06841   3.07295
 Alpha virt. eigenvalues --    3.07296   3.07457   3.07458   3.07659   3.08593
 Alpha virt. eigenvalues --    3.08594   3.09827   3.09828   3.10858   3.10867
 Alpha virt. eigenvalues --    3.10868   3.11302   3.11647   3.11648   3.11957
 Alpha virt. eigenvalues --    3.12209   3.12210   3.12680   3.12680   3.12718
 Alpha virt. eigenvalues --    3.12718   3.13040   3.13041   3.13113   3.13113
 Alpha virt. eigenvalues --    3.14458   3.14905   3.14906   3.16009   3.16318
 Alpha virt. eigenvalues --    3.16318   3.16329   3.16329   3.17106   3.17106
 Alpha virt. eigenvalues --    3.17584   3.17584   3.18363   3.18364   3.18521
 Alpha virt. eigenvalues --    3.18521   3.18883   3.18883   3.18948   3.18981
 Alpha virt. eigenvalues --    3.18981   3.19751   3.19751   3.20371   3.20373
 Alpha virt. eigenvalues --    3.20967   3.20968   3.21338   3.24423   3.24700
 Alpha virt. eigenvalues --    3.24700   3.24834   3.24852   3.24852   3.24939
 Alpha virt. eigenvalues --    3.24940   3.25103   3.25104   3.25143   3.25144
 Alpha virt. eigenvalues --    3.25246   3.25246   3.25411   3.25412   3.25419
 Alpha virt. eigenvalues --    3.25451   3.25451   3.25744   3.25744   3.26632
 Alpha virt. eigenvalues --    3.26632   3.27729   3.27730   3.28577   3.28578
 Alpha virt. eigenvalues --    3.28858   3.29424   3.29488   3.29489   3.29970
 Alpha virt. eigenvalues --    3.29971   3.30674   3.30675   3.31168   3.31169
 Alpha virt. eigenvalues --    3.31442   3.31443   3.31640   3.31641   3.31800
 Alpha virt. eigenvalues --    3.32382   3.32624   3.32739   3.32739   3.32982
 Alpha virt. eigenvalues --    3.32983   3.33592   3.33592   3.33884   3.33884
 Alpha virt. eigenvalues --    3.34671   3.34671   3.34956   3.34956   3.37802
 Alpha virt. eigenvalues --    3.38107   3.38107   3.38770   3.38771   3.38778
 Alpha virt. eigenvalues --    3.38779   3.38924   3.38924   3.39911   3.39912
 Alpha virt. eigenvalues --    3.40880   3.40880   3.41150   3.41587   3.41588
 Alpha virt. eigenvalues --    3.41833   3.41833   3.41964   3.41964   3.42325
 Alpha virt. eigenvalues --    3.42957   3.42958   3.43749   3.44138   3.44138
 Alpha virt. eigenvalues --    3.44304   3.44304   3.44345   3.44345   3.44402
 Alpha virt. eigenvalues --    3.44999   3.44999   3.45600   3.45601   3.45717
 Alpha virt. eigenvalues --    3.45718   3.46190   3.46190   3.48035   3.48035
 Alpha virt. eigenvalues --    3.48668   3.48669   3.48928   3.49193   3.49193
 Alpha virt. eigenvalues --    3.50160   3.50160   3.50319   3.50320   3.51036
 Alpha virt. eigenvalues --    3.51036   3.51381   3.52219   3.52219   3.52939
 Alpha virt. eigenvalues --    3.57862   3.58096   3.58096   3.59044   3.59044
 Alpha virt. eigenvalues --    3.60220   3.60220   3.61355   3.61356   3.63024
 Alpha virt. eigenvalues --    3.63024   3.65529   3.65530   3.67234   3.72012
 Alpha virt. eigenvalues --    3.72933   3.72934   3.73681   3.73682   3.73874
 Alpha virt. eigenvalues --    3.73874   3.73946   3.73946   3.73971   3.73972
 Alpha virt. eigenvalues --    3.74774   3.74775   3.75219   3.93304   3.93304
 Alpha virt. eigenvalues --    3.93345   3.93345   3.93970   3.93970   3.94347
 Alpha virt. eigenvalues --    3.94431   3.94431   3.95931   3.95931   3.96686
 Alpha virt. eigenvalues --    3.96729   3.96729   4.01296   4.01373   4.01373
 Alpha virt. eigenvalues --    4.02553   4.02553   4.04774   4.04774   4.07215
 Alpha virt. eigenvalues --    4.07215   4.09692   4.09692   4.12512   4.12513
 Alpha virt. eigenvalues --    4.15009   4.19307   4.23406   4.23407   4.30641
 Alpha virt. eigenvalues --    4.30641   4.39494   4.39496   4.49540   4.49540
 Alpha virt. eigenvalues --    4.59877   4.59883   4.68355   4.68358   4.71017
 Alpha virt. eigenvalues --    4.71018   4.71039   4.71137   4.71139   4.71597
 Alpha virt. eigenvalues --    4.71597   4.71782   4.72358   4.72359   4.73175
 Alpha virt. eigenvalues --    4.73177   4.73177   4.73460   4.73460   4.76563
 Alpha virt. eigenvalues --    4.76564   4.76758   4.77251   4.77252   4.78918
 Alpha virt. eigenvalues --    4.78919   4.80835   4.80837   4.82595   4.82596
 Alpha virt. eigenvalues --    4.83876   4.83877   4.84357  23.10496  23.13056
 Alpha virt. eigenvalues --   23.13056  23.19564  23.19565  23.27878  23.27878
 Alpha virt. eigenvalues --   23.36423  23.36424  23.44198  23.44199  23.50117
 Alpha virt. eigenvalues --   23.50117  23.52465  23.61993  23.62196  23.62197
 Alpha virt. eigenvalues --   23.62970  23.62970  23.64201  23.64201  23.65616
 Alpha virt. eigenvalues --   23.65616  23.66940  23.66940  23.67894  23.67894
 Alpha virt. eigenvalues --   23.68244  23.75399  23.76496  23.76496  23.78583
 Alpha virt. eigenvalues --   23.78584  23.80294  23.80294  23.81300  23.81300
 Alpha virt. eigenvalues --   23.81807  23.81808  23.82077  23.82077  23.82180
 Alpha virt. eigenvalues --   23.89220  23.89374  23.89374  23.89853  23.89853
 Alpha virt. eigenvalues --   23.90661  23.90662  23.91670  23.91670  23.92630
 Alpha virt. eigenvalues --   23.92630  23.93323  23.93323  23.93585  23.96927
 Alpha virt. eigenvalues --   23.97174  23.97175  23.97699  23.97699  23.98204
 Alpha virt. eigenvalues --   23.98204  23.98576  23.98576  23.98818  23.98818
 Alpha virt. eigenvalues --   23.98961  23.98961  23.99010  24.03827  24.03857
 Alpha virt. eigenvalues --   24.03857  24.03956  24.03956  24.04152  24.04152
 Alpha virt. eigenvalues --   24.04468  24.04468  24.04887  24.04887  24.05298
 Alpha virt. eigenvalues --   24.05298  24.05481  24.08462  24.08527  24.08527
 Alpha virt. eigenvalues --   24.08676  24.08677  24.08834  24.08835  24.08965
 Alpha virt. eigenvalues --   24.08966  24.09066  24.09066  24.09137  24.09137
 Alpha virt. eigenvalues --   24.09164  24.14642  24.14642  24.14683  24.14683
 Alpha virt. eigenvalues --   24.14696  24.14696  24.14742  24.14829  24.14829
 Alpha virt. eigenvalues --   24.15033  24.15034  24.15222  24.15222  24.15302
          Condensed to atoms (all electrons):
 Mulliken charges:
               1
     1  C    0.063806
     2  C    0.001820
     3  C   -0.227019
     4  C   -0.227031
     5  C    0.063797
     6  C    0.001827
     7  C   -0.234997
     8  C   -0.234990
     9  C    0.001847
    10  C    0.063788
    11  C   -0.227019
    12  C   -0.227040
    13  C    0.001789
    14  C    0.063838
    15  C   -0.234985
    16  C   -0.234986
    17  C    0.063814
    18  C    0.001811
    19  C   -0.227017
    20  C   -0.227027
    21  C    0.063783
    22  C    0.001814
    23  C   -0.235003
    24  C   -0.234964
    25  C    0.001799
    26  C    0.063817
    27  C   -0.227003
    28  C   -0.227050
    29  C    0.001787
    30  C    0.063831
    31  C   -0.234969
    32  C   -0.234973
    33  C    0.063832
    34  C    0.001785
    35  C   -0.226997
    36  C   -0.227051
    37  C    0.063811
    38  C    0.001815
    39  C   -0.234963
    40  C   -0.235006
    41  C    0.001802
    42  C    0.063789
    43  C   -0.227015
    44  C   -0.227029
    45  C    0.001818
    46  C    0.063816
    47  C   -0.234983
    48  C   -0.234986
    49  C    0.063832
    50  C    0.001776
    51  C   -0.227022
    52  C   -0.227032
    53  C    0.063792
    54  C    0.001845
    55  C   -0.234982
    56  C   -0.235001
    57  C    0.001817
    58  C    0.063809
    59  C   -0.227033
    60  C   -0.227021
    61  C    0.001826
    62  C    0.063799
    63  C   -0.234990
    64  C   -0.235000
    65  C    0.063787
    66  C    0.001848
    67  C   -0.227037
    68  C   -0.227018
    69  C    0.063834
    70  C    0.001791
    71  C   -0.234983
    72  C   -0.234986
    73  C    0.001808
    74  C    0.063817
    75  C   -0.227028
    76  C   -0.227019
    77  C    0.001813
    78  C    0.063785
    79  C   -0.234962
    80  C   -0.235006
    81  C    0.063816
    82  C    0.001800
    83  C   -0.227048
    84  C   -0.227001
    85  C    0.063827
    86  C    0.001789
    87  C   -0.234970
    88  C   -0.234970
    89  C    0.001785
    90  C    0.063833
    91  C   -0.227052
    92  C   -0.227000
    93  C    0.001812
    94  C    0.063815
    95  C   -0.235006
    96  C   -0.234965
    97  C    0.063786
    98  C    0.001804
    99  C   -0.227026
   100  C   -0.227014
   101  C    0.063813
   102  C    0.001819
   103  C   -0.234983
   104  C   -0.234984
   105  C    0.001775
   106  C    0.063833
   107  C   -0.227034
   108  C   -0.227025
   109  C    0.001843
   110  C    0.063795
   111  C   -0.235001
   112  C   -0.234984
   113  H    0.190144
   114  H    0.190145
   115  H    0.206250
   116  H    0.206244
   117  H    0.190145
   118  H    0.190144
   119  H    0.206246
   120  H    0.206245
   121  H    0.190142
   122  H    0.190146
   123  H    0.206249
   124  H    0.206244
   125  H    0.190144
   126  H    0.190143
   127  H    0.206243
   128  H    0.206247
   129  H    0.190145
   130  H    0.190145
   131  H    0.206242
   132  H    0.206245
   133  H    0.190141
   134  H    0.190144
   135  H    0.206246
   136  H    0.206248
   137  H    0.190145
   138  H    0.190143
   139  H    0.206249
   140  H    0.206250
   141  H    0.190144
   142  H    0.190144
   143  H    0.206244
   144  H    0.206250
   145  H    0.190144
   146  H    0.190145
   147  H    0.206245
   148  H    0.206246
   149  H    0.190145
   150  H    0.190142
   151  H    0.206244
   152  H    0.206248
   153  H    0.190144
   154  H    0.190144
   155  H    0.206247
   156  H    0.206243
   157  H    0.190144
   158  H    0.190144
   159  H    0.206245
   160  H    0.206242
   161  H    0.190145
   162  H    0.190142
   163  H    0.206249
   164  H    0.206246
   165  H    0.190142
   166  H    0.190144
   167  H    0.206250
   168  H    0.206249
 Sum of Mulliken charges =  -0.00000
 Mulliken charges with hydrogens summed into heavy atoms:
               1
     1  C    0.063806
     2  C    0.001820
     3  C   -0.036875
     4  C   -0.036886
     5  C    0.063797
     6  C    0.001827
     7  C   -0.028747
     8  C   -0.028747
     9  C    0.001847
    10  C    0.063788
    11  C   -0.036874
    12  C   -0.036896
    13  C    0.001789
    14  C    0.063838
    15  C   -0.028739
    16  C   -0.028741
    17  C    0.063814
    18  C    0.001811
    19  C   -0.036875
    20  C   -0.036881
    21  C    0.063783
    22  C    0.001814
    23  C   -0.028754
    24  C   -0.028720
    25  C    0.001799
    26  C    0.063817
    27  C   -0.036859
    28  C   -0.036907
    29  C    0.001787
    30  C    0.063831
    31  C   -0.028726
    32  C   -0.028726
    33  C    0.063832
    34  C    0.001785
    35  C   -0.036852
    36  C   -0.036906
    37  C    0.063811
    38  C    0.001815
    39  C   -0.028722
    40  C   -0.028761
    41  C    0.001802
    42  C    0.063789
    43  C   -0.036874
    44  C   -0.036884
    45  C    0.001818
    46  C    0.063816
    47  C   -0.028736
    48  C   -0.028738
    49  C    0.063832
    50  C    0.001776
    51  C   -0.036877
    52  C   -0.036890
    53  C    0.063792
    54  C    0.001845
    55  C   -0.028733
    56  C   -0.028751
    57  C    0.001817
    58  C    0.063809
    59  C   -0.036889
    60  C   -0.036877
    61  C    0.001826
    62  C    0.063799
    63  C   -0.028746
    64  C   -0.028751
    65  C    0.063787
    66  C    0.001848
    67  C   -0.036893
    68  C   -0.036873
    69  C    0.063834
    70  C    0.001791
    71  C   -0.028738
    72  C   -0.028740
    73  C    0.001808
    74  C    0.063817
    75  C   -0.036884
    76  C   -0.036877
    77  C    0.001813
    78  C    0.063785
    79  C   -0.028718
    80  C   -0.028758
    81  C    0.063816
    82  C    0.001800
    83  C   -0.036904
    84  C   -0.036856
    85  C    0.063827
    86  C    0.001789
    87  C   -0.028723
    88  C   -0.028727
    89  C    0.001785
    90  C    0.063833
    91  C   -0.036908
    92  C   -0.036855
    93  C    0.001812
    94  C    0.063815
    95  C   -0.028761
    96  C   -0.028724
    97  C    0.063786
    98  C    0.001804
    99  C   -0.036881
   100  C   -0.036872
   101  C    0.063813
   102  C    0.001819
   103  C   -0.028734
   104  C   -0.028738
   105  C    0.001775
   106  C    0.063833
   107  C   -0.036891
   108  C   -0.036880
   109  C    0.001843
   110  C    0.063795
   111  C   -0.028751
   112  C   -0.028736
 Electronic spatial extent (au):  <R**2>=         251593.7055
 Charge=             -0.0000 electrons
 Dipole moment (field-independent basis, Debye):
    X=             -0.0000    Y=              0.0000    Z=             -0.0000  Tot=              0.0000
 Quadrupole moment (field-independent basis, Debye-Ang):
   XX=           -674.0128   YY=           -674.0080   ZZ=           -546.1867
   XY=             -0.0003   XZ=             -0.0047   YZ=              0.0004
 Traceless Quadrupole moment (field-independent basis, Debye-Ang):
   XX=            -42.6103   YY=            -42.6055   ZZ=             85.2158
   XY=             -0.0003   XZ=             -0.0047   YZ=              0.0004
 Octapole moment (field-independent basis, Debye-Ang**2):
  XXX=             -0.0006  YYY=              0.0013  ZZZ=             29.3990  XYY=             -0.0006
  XXY=              0.0002  XXZ=             12.0907  XZZ=             -0.0000  YZZ=              0.0002
  YYZ=             12.0902  XYZ=             -0.0003
 Hexadecapole moment (field-independent basis, Debye-Ang**3):
 XXXX=        -190780.3867 YYYY=        -190810.0023 ZZZZ=          -9278.2927 XXXY=             -1.4667
 XXXZ=             -0.1444 YYYX=             -1.6469 YYYZ=              0.1601 ZZZX=              0.2375
 ZZZY=             -0.0156 XXYY=         -63598.2322 XXZZ=         -27384.4323 YYZZ=         -27388.5298
 XXYZ=             -0.0644 YYXZ=             -0.6891 ZZXY=             -0.4085
 N-N= 1.668893882001D+04 E-N=-4.336031306222D+04  KE= 4.284112195937D+03
 1\1\GINC-CU24\SP\RB3LYP\6-311G(d)\C112H56\WANG\27-Apr-2025\0\\# B3LYP/
 6-311G* NOSYMM\\From 14_14-CNB_opt.out\\0,1\C,0,9.537042,-1.52084,-1.2
 16438\C,0,9.624921,-0.830101,0.035568\C,0,9.667444,0.579906,-2.445385\
 C,0,9.653567,-0.776795,-2.445381\C,0,9.566201,1.326198,-1.216452\C,0,9
 .639959,0.633819,0.035562\C,0,9.567122,1.402918,1.201566\C,0,9.285228,
 2.698508,-1.237639\C,0,9.03217,3.428442,-0.071633\C,0,9.252773,2.76796
 9,1.180386\C,0,9.034888,3.488843,2.409341\C,0,8.45859,4.717141,2.40937
 1\C,0,8.410442,4.753851,-0.071595\C,0,8.043525,5.345578,1.180458\C,0,7
 .19486,6.459995,1.201712\C,0,8.011062,5.41524,-1.237554\C,0,7.135497,6
 .508663,-1.216301\C,0,6.650175,7.007914,0.035736\C,0,5.57451,7.920609,
 -2.4452\C,0,6.62652,7.063802,-2.445219\C,0,4.927847,8.306654,-1.216271
 \C,0,5.515045,7.932448,0.035748\C,0,4.868261,8.354955,1.20174\C,0,3.67
 9774,8.942667,-1.237497\C,0,2.951226,9.199767,-0.071516\C,0,3.605052,8
 .960315,1.180519\C,0,2.905562,9.239442,2.409443\C,0,1.585966,9.554899,
 2.409425\C,0,1.527346,9.540155,-0.071532\C,0,0.835899,9.622301,1.18048
 2\C,0,-0.564522,9.653744,1.201677\C,0,0.76129,9.640205,-1.237524\C,0,-
 0.639487,9.637446,-1.216327\C,0,-1.332473,9.569439,0.03568\C,0,-2.7164
 98,9.296867,-2.445316\C,0,-1.390755,9.585376,-2.44529\C,0,-3.421539,9.
 032077,-1.216386\C,0,-2.763017,9.258238,0.035654\C,0,-3.496709,9.01611
 6,1.201623\C,0,-4.696802,8.452536,-1.237627\C,0,-5.352077,8.043311,-0.
 071639\C,0,-4.757438,8.405591,1.180383\C,0,-5.411817,8.032752,2.409303
 \C,0,-6.480921,7.197371,2.409321\C,0,-6.505734,7.142004,-0.071629\C,0,
 -7.001046,6.652657,1.180414\C,0,-7.898606,5.577224,1.20166\C,0,-7.0614
 78,6.605303,-1.237603\C,0,-7.932589,5.508331,-1.216351\C,0,-8.311406,4
 .924149,0.035691\C,0,-8.961442,3.672115,-2.445251\C,0,-8.360336,4.8884
 65,-2.445276\C,0,-9.193998,2.955849,-1.21629\C,0,-8.960039,3.611693,0.
 035725\C,0,-9.228031,2.887111,1.201732\C,0,-9.536216,1.597511,-1.23746
 \C,0,-9.624919,0.830099,-0.071449\C,0,-9.537048,1.520846,1.180562\C,0,
 -9.653582,0.776797,2.409494\C,0,-9.667456,-0.579908,2.4095\C,0,-9.6399
 56,-0.633818,-0.071443\C,0,-9.566204,-1.326204,1.180577\C,0,-9.285228,
 -2.698509,1.20176\C,0,-9.567111,-1.402916,-1.237444\C,0,-9.252761,-2.7
 67972,-1.216262\C,0,-9.032168,-3.428442,0.035752\C,0,-8.458575,-4.7171
 34,-2.445256\C,0,-9.034869,-3.488838,-2.445227\C,0,-8.043521,-5.345571
 ,-1.216334\C,0,-8.410441,-4.753855,0.035714\C,0,-8.01107,-5.415249,1.2
 01675\C,0,-7.194857,-6.459995,-1.237592\C,0,-6.650177,-7.007918,-0.071
 617\C,0,-7.13551,-6.50867,1.180424\C,0,-6.626536,-7.06382,2.409331\C,0
 ,-5.574522,-7.920627,2.409314\C,0,-5.515048,-7.93245,-0.071629\C,0,-4.
 927848,-8.306666,1.180395\C,0,-3.679778,-8.942673,1.201618\C,0,-4.8682
 58,-8.35495,-1.237619\C,0,-3.605044,-8.960309,-1.216396\C,0,-2.951228,
 -9.199767,0.035635\C,0,-1.585965,-9.554886,-2.445311\C,0,-2.905557,-9.
 239427,-2.44533\C,0,-0.835905,-9.622295,-1.216358\C,0,-1.527345,-9.540
 157,0.035651\C,0,-0.76129,-9.640213,1.201645\C,0,0.564522,-9.653742,-1
 .237557\C,0,1.332474,-9.569439,-0.071563\C,0,0.639482,-9.637454,1.1804
 5\C,0,1.390757,-9.585392,2.409402\C,0,2.716503,-9.29688,2.409429\C,0,2
 .763014,-9.258236,-0.071537\C,0,3.421547,-9.03208,1.180508\C,0,4.69680
 3,-8.452537,1.201745\C,0,3.496702,-9.016105,-1.237504\C,0,4.757435,-8.
 405576,-1.216262\C,0,5.352075,-8.043309,0.035755\C,0,6.480905,-7.19735
 4,-2.44521\C,0,5.411803,-8.032731,-2.445193\C,0,7.001035,-6.652652,-1.
 216294\C,0,6.505736,-7.142002,0.035745\C,0,7.061488,-6.60531,1.201721\
 C,0,7.898603,-5.577219,-1.237542\C,0,8.31141,-4.924149,-0.071575\C,0,7
 .932597,-5.508344,1.180472\C,0,8.360358,-4.888479,2.409387\C,0,8.96146
 2,-3.672124,2.409363\C,0,8.960041,-3.611696,-0.071608\C,0,9.19401,-2.9
 55848,1.180412\C,0,9.536222,-1.597515,1.20158\C,0,9.228025,-2.88711,-1
 .237612\H,0,9.696899,1.132161,-3.381578\H,0,9.671745,-1.329544,-3.3815
 68\H,0,9.662101,0.928628,2.173679\H,0,9.17466,3.169344,-2.209776\H,0,9
 .291113,2.998724,3.345526\H,0,8.245458,5.227429,3.345583\H,0,6.890914,
 6.836153,2.173866\H,0,8.302523,5.029309,-2.209702\H,0,5.161172,8.28807
 5,-3.381379\H,0,7.070052,6.733449,-3.381411\H,0,5.298236,8.133508,2.17
 3874\H,0,3.242824,9.14995,-2.209645\H,0,3.448449,9.134065,3.345648\H,0
 ,1.054103,9.706473,3.345619\H,0,-1.048165,9.650662,2.173806\H,0,1.2447
 79,9.62724,-2.209649\H,0,-3.261431,9.202549,-3.381513\H,0,-0.855885,9.
 726095,-3.381465\H,0,-3.055685,9.214562,2.173775\H,0,-5.131134,8.23981
 ,-2.209771\H,0,-4.991155,8.391778,3.345497\H,0,-6.931013,6.876052,3.34
 5528\H,0,-8.197787,5.197243,2.173805\H,0,-6.750026,6.975275,-2.209755\
 H,0,-9.227575,3.187285,-3.381425\H,0,-8.136889,5.394351,-3.381473\H,0,
 -9.107915,3.355624,2.173859\H,0,-9.640784,1.12524,-2.20957\H,0,-9.6717
 5,1.329525,3.345695\H,0,-9.69691,-1.13214,3.345706\H,0,-9.174659,-3.16
 9351,2.173894\H,0,-9.662088,-0.928633,-2.209561\H,0,-8.245434,-5.22744
 2,-3.381455\H,0,-9.291112,-2.998703,-3.381399\H,0,-8.302536,-5.029315,
 2.17382\H,0,-6.890914,-6.836147,-2.209748\H,0,-7.070047,-6.733475,3.34
 5538\H,0,-5.161201,-8.288081,3.345507\H,0,-3.242823,-9.149959,2.173763
 \H,0,-5.298228,-8.133505,-2.209756\H,0,-1.054081,-9.706467,-3.381491\H
 ,0,-3.448467,-9.134055,-3.381522\H,0,-1.244785,-9.627247,2.173767\H,0,
 1.048159,-9.65066,-2.209689\H,0,0.855906,-9.726096,3.345591\H,0,3.2614
 15,-9.202565,3.345639\H,0,5.131141,-8.23981,2.173886\H,0,3.055683,-9.2
 14546,-2.209659\H,0,6.931013,-6.876019,-3.381403\H,0,4.991128,-8.39177
 5,-3.381373\H,0,6.750033,-6.975288,2.173869\H,0,8.197778,-5.19724,-2.2
 0969\H,0,8.136913,-5.394342,3.345597\H,0,9.227586,-3.187315,3.345552\H
 ,0,9.640793,-1.125238,2.173688\H,0,9.107912,-3.355617,-2.209742\\Versi
 on=ES64L-G16RevB.01\HF=-4302.7655763\RMSD=4.491e-09\Dipole=-0.0000018,
 0.0000016,-0.0000021\Quadrupole=-31.6797058,-31.6761304,63.3558362,-0.
 0002257,-0.0034803,0.0002653\PG=C01 [X(C112H56)]\\@


 GARLIC THEN HAVE POWER TO SAVE FROM DEATH
 BEAR WITH IT THOUGH IT MAKETH UNSAVORY BREATH,
 AND SCORN NOT GARLIC LIKE SOME THAT THINK
 IT ONLY MAKETH MEN WINK AND DRINK AND STINK.
   --  SIR JOHN HARRINGTON,
       "THE ENGLISHMAN'S DOCTOR", 1609
 Job cpu time:       0 days  1 hours 44 minutes  2.3 seconds.
 Elapsed time:       0 days  0 hours  5 minutes 49.2 seconds.
 File lengths (MBytes):  RWF=   2559 Int=      0 D2E=      0 Chk=    275 Scr=      1
 Normal termination of Gaussian 16 at Sun Apr 27 18:24:09 2025.
