 Entering Gaussian System, Link 0=g16
 Initial command:
 /opt/software/g16/l1.exe "/tmp/16_16-CNB-34366.tmp/Gau-49022.inp" -scrdir="/tmp/16_16-CNB-34366.tmp/"
 Entering Link 1 = /opt/software/g16/l1.exe PID=     49023.
  
 Copyright (c) 1988-2017, Gaussian, Inc.  All Rights Reserved.
  
 This is part of the Gaussian(R) 16 program.  It is based on
 the Gaussian(R) 09 system (copyright 2009, Gaussian, Inc.),
 the Gaussian(R) 03 system (copyright 2003, Gaussian, Inc.),
 the Gaussian(R) 98 system (copyright 1998, Gaussian, Inc.),
 the Gaussian(R) 94 system (copyright 1995, Gaussian, Inc.),
 the Gaussian 92(TM) system (copyright 1992, Gaussian, Inc.),
 the Gaussian 90(TM) system (copyright 1990, Gaussian, Inc.),
 the Gaussian 88(TM) system (copyright 1988, Gaussian, Inc.),
 the Gaussian 86(TM) system (copyright 1986, Carnegie Mellon
 University), and the Gaussian 82(TM) system (copyright 1983,
 Carnegie Mellon University). Gaussian is a federally registered
 trademark of Gaussian, Inc.
  
 This software contains proprietary and confidential information,
 including trade secrets, belonging to Gaussian, Inc.
  
 This software is provided under written license and may be
 used, copied, transmitted, or stored only in accord with that
 written license.
  
 The following legend is applicable only to US Government
 contracts under FAR:
  
                    RESTRICTED RIGHTS LEGEND
  
 Use, reproduction and disclosure by the US Government is
 subject to restrictions as set forth in subparagraphs (a)
 and (c) of the Commercial Computer Software - Restricted
 Rights clause in FAR 52.227-19.
  
 Gaussian, Inc.
 340 Quinnipiac St., Bldg. 40, Wallingford CT 06492
  
  
 ---------------------------------------------------------------
 Warning -- This program may not be used in any manner that
 competes with the business of Gaussian, Inc. or will provide
 assistance to any competitor of Gaussian, Inc.  The licensee
 of this program is prohibited from giving any competitor of
 Gaussian, Inc. access to this program.  By using this program,
 the user acknowledges that Gaussian, Inc. is engaged in the
 business of creating and licensing software in the field of
 computational chemistry and represents and warrants to the
 licensee that it is not a competitor of Gaussian, Inc. and that
 it will not use this program in any manner prohibited above.
 ---------------------------------------------------------------
  

 Cite this work as:
 Gaussian 16, Revision B.01,
 M. J. Frisch, G. W. Trucks, H. B. Schlegel, G. E. Scuseria, 
 M. A. Robb, J. R. Cheeseman, G. Scalmani, V. Barone, 
 G. A. Petersson, H. Nakatsuji, X. Li, M. Caricato, A. V. Marenich, 
 J. Bloino, B. G. Janesko, R. Gomperts, B. Mennucci, H. P. Hratchian, 
 J. V. Ortiz, A. F. Izmaylov, J. L. Sonnenberg, D. Williams-Young, 
 F. Ding, F. Lipparini, F. Egidi, J. Goings, B. Peng, A. Petrone, 
 T. Henderson, D. Ranasinghe, V. G. Zakrzewski, J. Gao, N. Rega, 
 G. Zheng, W. Liang, M. Hada, M. Ehara, K. Toyota, R. Fukuda, 
 J. Hasegawa, M. Ishida, T. Nakajima, Y. Honda, O. Kitao, H. Nakai, 
 T. Vreven, K. Throssell, J. A. Montgomery, Jr., J. E. Peralta, 
 F. Ogliaro, M. J. Bearpark, J. J. Heyd, E. N. Brothers, K. N. Kudin, 
 V. N. Staroverov, T. A. Keith, R. Kobayashi, J. Normand, 
 K. Raghavachari, A. P. Rendell, J. C. Burant, S. S. Iyengar, 
 J. Tomasi, M. Cossi, J. M. Millam, M. Klene, C. Adamo, R. Cammi, 
 J. W. Ochterski, R. L. Martin, K. Morokuma, O. Farkas, 
 J. B. Foresman, and D. J. Fox, Gaussian, Inc., Wallingford CT, 2016.
 
 ******************************************
 Gaussian 16:  ES64L-G16RevB.01 20-Dec-2017
                27-Apr-2025 
 ******************************************
 %nproc=18
 Will use up to   18 processors via shared memory.
 ----------------------
 # B3LYP/6-311G* NOSYMM
 ----------------------
 1/38=1,172=1/1;
 2/12=2,15=1,17=6,18=5,40=1/2;
 3/5=4,6=6,7=1,11=2,25=1,30=1,74=-5/1,2,3;
 4//1;
 5/5=2,38=5/2;
 6/7=2,8=2,9=2,10=2,28=1/1;
 99/5=1,9=1/99;
 ----------------------
 From 16_16-CNB_opt.out
 ----------------------
 Symbolic Z-matrix:
 Charge =  0 Multiplicity = 1
 6                     10.93068  -1.52124  -1.21436 
 6                     11.00749  -0.8292    0.03769 
 6                     11.04482   0.58089  -2.4434 
 6                     11.03286  -0.77588  -2.44341 
 6                     10.95569   1.32789  -1.21434 
 6                     11.02022   0.63458   0.0377 
 6                     10.9563   1.4038    1.20387 
 6                     10.70894   2.70677  -1.23507 
 6                     10.48607   3.44579  -0.06892 
 6                     10.6802   2.7771    1.18314 
 6                     10.48915   3.50475   2.41219 
 6                     9.98075   4.76272   2.4122 
 6                     9.93745   4.80293  -0.06891 
 6                     9.61249   5.41873   1.18314 
 6                     8.85697   6.5983    1.20391 
 6                     9.58398   5.48916  -1.23504 
 6                     8.80343   6.6523   -1.21427 
 6                     8.36835   7.19591   0.03779 
 6                     7.39786   8.21955  -2.44333 
 6                     8.34861   7.25154  -2.44333 
 6                     6.80683   8.68497  -1.21427 
 6                     7.3425    8.24014   0.03779 
 6                     6.75353   8.73912   1.20392 
 6                     5.65777   9.48611  -1.23503 
 6                     4.97782   9.85157  -0.06892 
 6                     5.58765   9.51558   1.18315 
 6                     4.93827   9.89545   2.41219 
 6                     3.68961   10.42631   2.41217 
 6                     3.63061   10.42412  -0.06895 
 6                     2.96546   10.63016   1.1831 
 6                     1.59723   10.93041   1.20383 
 6                     2.89557   10.6598  -1.2351 
 6                     1.52124   10.93068  -1.21437 
 6                     0.8292    11.00749   0.03769 
 6                    -0.58089   11.04482  -2.44341 
 6                     0.77589   11.03286  -2.44341 
 6                    -1.32789   10.95568  -1.21435 
 6                    -0.63458   11.02022   0.0377 
 6                    -1.4038    10.9563   1.20386 
 6                    -2.70677   10.70894  -1.23507 
 6                    -3.44579   10.48607  -0.06893 
 6                    -2.7771    10.6802   1.18314 
 6                    -3.50475   10.48915   2.41219 
 6                    -4.76272   9.98075   2.41219 
 6                    -4.80293   9.93745  -0.06892 
 6                    -5.41873   9.61249   1.18314 
 6                    -6.5983    8.85697   1.20391 
 6                    -5.48916   9.58398  -1.23505 
 6                    -6.6523    8.80343  -1.21428 
 6                    -7.19591   8.36835   0.03779 
 6                    -8.21955   7.39786  -2.44333 
 6                    -7.25154   8.34861  -2.44333 
 6                    -8.68497   6.80683  -1.21427 
 6                    -8.24014   7.3425    0.03779 
 6                    -8.73912   6.75353   1.20392 
 6                    -9.48611   5.65777  -1.23504 
 6                    -9.85157   4.97782  -0.06893 
 6                    -9.51558   5.58765   1.18315 
 6                    -9.89546   4.93827   2.41219 
 6                    -10.42631   3.68961   2.41217 
 6                    -10.42412   3.63061  -0.06895 
 6                    -10.63016   2.96546   1.18309 
 6                    -10.93041   1.59723   1.20383 
 6                    -10.6598   2.89557  -1.23511 
 6                    -10.93068   1.52124  -1.21437 
 6                    -11.00749   0.8292    0.03768 
 6                    -11.04482  -0.58089  -2.44341 
 6                    -11.03286   0.77588  -2.44342 
 6                    -10.95568  -1.32789  -1.21435 
 6                    -11.02022  -0.63458   0.03769 
 6                    -10.9563  -1.4038    1.20386 
 6                    -10.70894  -2.70677  -1.23508 
 6                    -10.48607  -3.44579  -0.06893 
 6                    -10.6802  -2.7771    1.18313 
 6                    -10.48915  -3.50475   2.41218 
 6                    -9.98075  -4.76272   2.41219 
 6                    -9.93745  -4.80293  -0.06892 
 6                    -9.61249  -5.41873   1.18314 
 6                    -8.85697  -6.5983    1.20391 
 6                    -9.58398  -5.48916  -1.23505 
 6                    -8.80343  -6.6523   -1.21428 
 6                    -8.36835  -7.19591   0.03779 
 6                    -7.39786  -8.21955  -2.44333 
 6                    -8.3486   -7.25154  -2.44333 
 6                    -6.80683  -8.68497  -1.21427 
 6                    -7.3425   -8.24014   0.03779 
 6                    -6.75353  -8.73912   1.20392 
 6                    -5.65777  -9.48611  -1.23504 
 6                    -4.97782  -9.85157  -0.06892 
 6                    -5.58765  -9.51558   1.18315 
 6                    -4.93827  -9.89545   2.41219 
 6                    -3.68961  -10.42631   2.41217 
 6                    -3.63061  -10.42412  -0.06895 
 6                    -2.96546  -10.63016   1.1831 
 6                    -1.59723  -10.93041   1.20383 
 6                    -2.89557  -10.65981  -1.2351 
 6                    -1.52123  -10.93068  -1.21437 
 6                    -0.8292   -11.00749   0.03769 
 6                     0.58089  -11.04482  -2.44341 
 6                    -0.77588  -11.03286  -2.44341 
 6                     1.32789  -10.95568  -1.21435 
 6                     0.63458  -11.02022   0.0377 
 6                     1.4038   -10.9563   1.20386 
 6                     2.70677  -10.70894  -1.23507 
 6                     3.44579  -10.48607  -0.06892 
 6                     2.7771   -10.6802   1.18314 
 6                     3.50475  -10.48915   2.41219 
 6                     4.76272  -9.98075   2.4122 
 6                     4.80293  -9.93745  -0.06891 
 6                     5.41873  -9.61249   1.18314 
 6                     6.5983   -8.85697   1.20391 
 6                     5.48916  -9.58398  -1.23504 
 6                     6.6523   -8.80343  -1.21427 
 6                     7.19591  -8.36835   0.03779 
 6                     8.21955  -7.39786  -2.44333 
 6                     7.25154  -8.3486   -2.44333 
 6                     8.68497  -6.80683  -1.21426 
 6                     8.24014  -7.3425    0.03779 
 6                     8.73912  -6.75353   1.20393 
 6                     9.48611  -5.65777  -1.23503 
 6                     9.85157  -4.97782  -0.06892 
 6                     9.51558  -5.58765   1.18316 
 6                     9.89545  -4.93827   2.41219 
 6                     10.42631  -3.68961   2.41217 
 6                     10.42412  -3.63061  -0.06894 
 6                     10.63016  -2.96546   1.1831 
 6                     10.93041  -1.59723   1.20384 
 6                     10.65981  -2.89557  -1.2351 
 1                     11.07058   1.13302  -3.37977 
 1                     11.04886  -1.32837  -3.37979 
 1                     11.03958   0.92721   2.1759 
 1                     10.61201   3.18072  -2.20712 
 1                     10.71543   3.00047   3.34857 
 1                     9.79321   5.28265   3.34857 
 1                     8.58618   6.99915   2.17597 
 1                     9.84344   5.08087  -2.2071 
 1                     7.02573   8.62824  -3.3797 
 1                     8.75052   6.8721   -3.3797 
 1                     7.14924   8.46088   2.17599 
 1                     5.25421   9.75286  -2.20709 
 1                     5.45473   9.69859   3.34858 
 1                     3.18947   10.66164   3.34854 
 1                     1.12226   11.02246   2.17587 
 1                     3.36773   10.55452  -2.20716 
 1                    -1.13302   11.07058  -3.37977 
 1                     1.32837   11.04886  -3.37979 
 1                    -0.92721   11.03958   2.1759 
 1                    -3.18072   10.61201  -2.20713 
 1                    -3.00048   10.71544   3.34857 
 1                    -5.28265   9.79321   3.34857 
 1                    -6.99915   8.58618   2.17597 
 1                    -5.08087   9.84344  -2.2071 
 1                    -8.62824   7.02573  -3.3797 
 1                    -6.8721    8.75052  -3.37971 
 1                    -8.46088   7.14924   2.17598 
 1                    -9.75286   5.25421  -2.2071 
 1                    -9.6986    5.45473   3.34857 
 1                    -10.66165   3.18947   3.34853 
 1                    -11.02247   1.12226   2.17586 
 1                    -10.55451   3.36773  -2.20716 
 1                    -11.07058  -1.13302  -3.37978 
 1                    -11.04886   1.32837  -3.3798 
 1                    -11.03958  -0.92721   2.17589 
 1                    -10.61201  -3.18072  -2.20713 
 1                    -10.71544  -3.00047   3.34856 
 1                    -9.79321  -5.28265   3.34857 
 1                    -8.58618  -6.99915   2.17597 
 1                    -9.84344  -5.08087  -2.2071 
 1                    -7.02573  -8.62824  -3.3797 
 1                    -8.75052  -6.8721   -3.37971 
 1                    -7.14924  -8.46088   2.17598 
 1                    -5.25421  -9.75286  -2.2071 
 1                    -5.45473  -9.69859   3.34858 
 1                    -3.18947  -10.66164   3.34853 
 1                    -1.12226  -11.02247   2.17587 
 1                    -3.36773  -10.55452  -2.20716 
 1                     1.13302  -11.07058  -3.37977 
 1                    -1.32837  -11.04886  -3.37979 
 1                     0.92721  -11.03958   2.1759 
 1                     3.18072  -10.61201  -2.20712 
 1                     3.00047  -10.71543   3.34857 
 1                     5.28265  -9.79321   3.34857 
 1                     6.99915  -8.58618   2.17597 
 1                     5.08087  -9.84344  -2.2071 
 1                     8.62825  -7.02573  -3.3797 
 1                     6.8721   -8.75052  -3.3797 
 1                     8.46088  -7.14924   2.17599 
 1                     9.75286  -5.25421  -2.20709 
 1                     9.69859  -5.45473   3.34858 
 1                     10.66164  -3.18947   3.34854 
 1                     11.02247  -1.12226   2.17587 
 1                     10.55452  -3.36773  -2.20715 
 
 Symmetry turned off by external request.
 This structure is nearly, but not quite of a higher symmetry.
 Consider Symm=Loose if the higher symmetry is desired.
 Stoichiometry    C128H64
 Framework group  C1[X(C128H64)]
 Deg. of freedom   570
 Full point group                 C1      NOp   1
                          Input orientation:                          
 ---------------------------------------------------------------------
 Center     Atomic      Atomic             Coordinates (Angstroms)
 Number     Number       Type             X           Y           Z
 ---------------------------------------------------------------------
      1          6           0       10.930678   -1.521235   -1.214361
      2          6           0       11.007492   -0.829195    0.037693
      3          6           0       11.044823    0.580886   -2.443400
      4          6           0       11.032864   -0.775884   -2.443409
      5          6           0       10.955685    1.327889   -1.214340
      6          6           0       11.020224    0.634582    0.037701
      7          6           0       10.956303    1.403797    1.203868
      8          6           0       10.708940    2.706766   -1.235066
      9          6           0       10.486072    3.445793   -0.068921
     10          6           0       10.680203    2.777095    1.183142
     11          6           0       10.489151    3.504752    2.412192
     12          6           0        9.980746    4.762718    2.412197
     13          6           0        9.937455    4.802925   -0.068909
     14          6           0        9.612493    5.418732    1.183143
     15          6           0        8.856971    6.598295    1.203914
     16          6           0        9.583978    5.489160   -1.235041
     17          6           0        8.803430    6.652302   -1.214272
     18          6           0        8.368351    7.195912    0.037794
     19          6           0        7.397864    8.219548   -2.443327
     20          6           0        8.348605    7.251537   -2.443328
     21          6           0        6.806833    8.684973   -1.214266
     22          6           0        7.342500    8.240143    0.037792
     23          6           0        6.753525    8.739117    1.203924
     24          6           0        5.657770    9.486112   -1.235034
     25          6           0        4.977818    9.851572   -0.068919
     26          6           0        5.587646    9.515581    1.183154
     27          6           0        4.938270    9.895454    2.412191
     28          6           0        3.689610   10.426306    2.412170
     29          6           0        3.630608   10.424117   -0.068947
     30          6           0        2.965460   10.630163    1.183099
     31          6           0        1.597233   10.930408    1.203834
     32          6           0        2.895572   10.659804   -1.235102
     33          6           0        1.521235   10.930675   -1.214366
     34          6           0        0.829195   11.007490    0.037688
     35          6           0       -0.580885   11.044819   -2.443406
     36          6           0        0.775885   11.032860   -2.443414
     37          6           0       -1.327889   10.955683   -1.214346
     38          6           0       -0.634582   11.020223    0.037695
     39          6           0       -1.403798   10.956303    1.203862
     40          6           0       -2.706766   10.708938   -1.235073
     41          6           0       -3.445793   10.486071   -0.068927
     42          6           0       -2.777096   10.680203    1.183136
     43          6           0       -3.504753   10.489152    2.412186
     44          6           0       -4.762719    9.980747    2.412191
     45          6           0       -4.802926    9.937455   -0.068915
     46          6           0       -5.418733    9.612493    1.183137
     47          6           0       -6.598296    8.856972    1.203907
     48          6           0       -5.489160    9.583978   -1.235047
     49          6           0       -6.652303    8.803430   -1.214278
     50          6           0       -7.195913    8.368352    0.037788
     51          6           0       -8.219549    7.397864   -2.443333
     52          6           0       -7.251538    8.348605   -2.443334
     53          6           0       -8.684974    6.806833   -1.214272
     54          6           0       -8.240143    7.342501    0.037786
     55          6           0       -8.739118    6.753525    1.203918
     56          6           0       -9.486113    5.657770   -1.235039
     57          6           0       -9.851573    4.977818   -0.068925
     58          6           0       -9.515582    5.587647    1.183148
     59          6           0       -9.895455    4.938271    2.412185
     60          6           0      -10.426307    3.689611    2.412165
     61          6           0      -10.424118    3.630608   -0.068952
     62          6           0      -10.630165    2.965460    1.183094
     63          6           0      -10.930410    1.597233    1.203829
     64          6           0      -10.659804    2.895572   -1.235108
     65          6           0      -10.930675    1.521235   -1.214370
     66          6           0      -11.007491    0.829195    0.037683
     67          6           0      -11.044819   -0.580886   -2.443410
     68          6           0      -11.032860    0.775884   -2.443418
     69          6           0      -10.955683   -1.327889   -1.214350
     70          6           0      -11.020223   -0.634582    0.037692
     71          6           0      -10.956303   -1.403797    1.203858
     72          6           0      -10.708938   -2.706766   -1.235076
     73          6           0      -10.486071   -3.445793   -0.068929
     74          6           0      -10.680203   -2.777095    1.183133
     75          6           0      -10.489153   -3.504752    2.412184
     76          6           0       -9.980747   -4.762718    2.412189
     77          6           0       -9.937454   -4.802926   -0.068917
     78          6           0       -9.612493   -5.418732    1.183135
     79          6           0       -8.856971   -6.598295    1.203907
     80          6           0       -9.583977   -5.489160   -1.235049
     81          6           0       -8.803429   -6.652303   -1.214279
     82          6           0       -8.368351   -7.195913    0.037788
     83          6           0       -7.397861   -8.219549   -2.443333
     84          6           0       -8.348603   -7.251538   -2.443334
     85          6           0       -6.806832   -8.684974   -1.214271
     86          6           0       -7.342500   -8.240143    0.037787
     87          6           0       -6.753525   -8.739117    1.203918
     88          6           0       -5.657768   -9.486113   -1.235038
     89          6           0       -4.977817   -9.851573   -0.068923
     90          6           0       -5.587647   -9.515581    1.183150
     91          6           0       -4.938272   -9.895454    2.412187
     92          6           0       -3.689611  -10.426306    2.412168
     93          6           0       -3.630608  -10.424118   -0.068949
     94          6           0       -2.965460  -10.630164    1.183097
     95          6           0       -1.597233  -10.930409    1.203833
     96          6           0       -2.895570  -10.659805   -1.235104
     97          6           0       -1.521234  -10.930676   -1.214367
     98          6           0       -0.829195  -11.007491    0.037687
     99          6           0        0.580888  -11.044820   -2.443405
    100          6           0       -0.775882  -11.032861   -2.443414
    101          6           0        1.327891  -10.955683   -1.214345
    102          6           0        0.634582  -11.020223    0.037697
    103          6           0        1.403797  -10.956303    1.203863
    104          6           0        2.706767  -10.708939   -1.235070
    105          6           0        3.445794  -10.486071   -0.068924
    106          6           0        2.777095  -10.680203    1.183138
    107          6           0        3.504752  -10.489152    2.412189
    108          6           0        4.762718   -9.980747    2.412195
    109          6           0        4.802927   -9.937455   -0.068911
    110          6           0        5.418733   -9.612493    1.183141
    111          6           0        6.598296   -8.856972    1.203913
    112          6           0        5.489161   -9.583978   -1.235042
    113          6           0        6.652304   -8.803429   -1.214272
    114          6           0        7.195914   -8.368351    0.037794
    115          6           0        8.219551   -7.397863   -2.443327
    116          6           0        7.251540   -8.348604   -2.443328
    117          6           0        8.684975   -6.806833   -1.214264
    118          6           0        8.240144   -7.342501    0.037793
    119          6           0        8.739117   -6.753525    1.203925
    120          6           0        9.486114   -5.657769   -1.235031
    121          6           0        9.851574   -4.977818   -0.068917
    122          6           0        9.515581   -5.587647    1.183156
    123          6           0        9.895454   -4.938271    2.412193
    124          6           0       10.426306   -3.689611    2.412174
    125          6           0       10.424119   -3.630608   -0.068943
    126          6           0       10.630164   -2.965460    1.183103
    127          6           0       10.930409   -1.597233    1.203838
    128          6           0       10.659807   -2.895572   -1.235098
    129          1           0       11.070583    1.133020   -3.379768
    130          1           0       11.048861   -1.328371   -3.379787
    131          1           0       11.039579    0.927212    2.175902
    132          1           0       10.612015    3.180717   -2.207119
    133          1           0       10.715434    3.000475    3.348571
    134          1           0        9.793205    5.282649    3.348574
    135          1           0        8.586177    6.999148    2.175973
    136          1           0        9.843439    5.080871   -2.207096
    137          1           0        7.025733    8.628243   -3.379698
    138          1           0        8.750518    6.872098   -3.379701
    139          1           0        7.149235    8.460879    2.175987
    140          1           0        5.254214    9.752861   -2.207092
    141          1           0        5.454728    9.698594    3.348579
    142          1           0        3.189470   10.661644    3.348535
    143          1           0        1.122260   11.022464    2.175866
    144          1           0        3.367728   10.554515   -2.207158
    145          1           0       -1.133019   11.070578   -3.379774
    146          1           0        1.328372   11.048858   -3.379792
    147          1           0       -0.927213   11.039580    2.175897
    148          1           0       -3.180716   10.612012   -2.207125
    149          1           0       -3.000476   10.715436    3.348565
    150          1           0       -5.282651    9.793206    3.348568
    151          1           0       -6.999149    8.586178    2.175967
    152          1           0       -5.080872    9.843438   -2.207102
    153          1           0       -8.628244    7.025733   -3.379704
    154          1           0       -6.872099    8.750518   -3.379708
    155          1           0       -8.460880    7.149236    2.175981
    156          1           0       -9.752862    5.254214   -2.207098
    157          1           0       -9.698595    5.454729    3.348573
    158          1           0      -10.661646    3.189472    3.348530
    159          1           0      -11.022466    1.122261    2.175862
    160          1           0      -10.554514    3.367728   -2.207163
    161          1           0      -11.070578   -1.133020   -3.379778
    162          1           0      -11.048856    1.328371   -3.379797
    163          1           0      -11.039580   -0.927212    2.175893
    164          1           0      -10.612012   -3.180717   -2.207128
    165          1           0      -10.715436   -3.000475    3.348562
    166          1           0       -9.793207   -5.282649    3.348566
    167          1           0       -8.586179   -6.999148    2.175966
    168          1           0       -9.843437   -5.080872   -2.207104
    169          1           0       -7.025731   -8.628244   -3.379704
    170          1           0       -8.750516   -6.872099   -3.379708
    171          1           0       -7.149236   -8.460879    2.175981
    172          1           0       -5.254212   -9.752862   -2.207096
    173          1           0       -5.454730   -9.698594    3.348575
    174          1           0       -3.189472  -10.661644    3.348533
    175          1           0       -1.122261  -11.022465    2.175866
    176          1           0       -3.367726  -10.554515   -2.207160
    177          1           0        1.133022  -11.070579   -3.379773
    178          1           0       -1.328369  -11.048858   -3.379793
    179          1           0        0.927212  -11.039579    2.175898
    180          1           0        3.180719  -10.612013   -2.207123
    181          1           0        3.000474  -10.715435    3.348567
    182          1           0        5.282648   -9.793206    3.348572
    183          1           0        6.999148   -8.586178    2.175973
    184          1           0        5.080873   -9.843437   -2.207098
    185          1           0        8.628247   -7.025732   -3.379697
    186          1           0        6.872101   -8.750517   -3.379702
    187          1           0        8.460879   -7.149236    2.175988
    188          1           0        9.752864   -5.254213   -2.207090
    189          1           0        9.698593   -5.454730    3.348581
    190          1           0       10.661644   -3.189472    3.348539
    191          1           0       11.022465   -1.122261    2.175871
    192          1           0       10.554518   -3.367728   -2.207154
 ---------------------------------------------------------------------
 Rotational constants (GHZ):           0.0049760           0.0049760           0.0025876
 Standard basis: 6-311G(d) (5D, 7F)
  2496 basis functions,  4416 primitive gaussians,  2624 cartesian basis functions
   416 alpha electrons      416 beta electrons
       nuclear repulsion energy     19793.1557634160 Hartrees.
 NAtoms=  192 NActive=  192 NUniq=  192 SFac= 1.00D+00 NAtFMM=   60 NAOKFM=T Big=T
 Integral buffers will be    131072 words long.
 Raffenetti 2 integral format.
 Two-electron integral symmetry is turned off.
 One-electron integrals computed using PRISM.
 NBasis=  2496 RedAO= T EigKep=  3.12D-05  NBF=  2496
 NBsUse=  2496 1.00D-06 EigRej= -1.00D+00 NBFU=  2496
 ExpMin= 1.03D-01 ExpMax= 4.56D+03 ExpMxC= 6.82D+02 IAcc=3 IRadAn=         5 AccDes= 0.00D+00
 Harris functional with IExCor=  402 and IRadAn=       5 diagonalized for initial guess.
 HarFok:  IExCor=  402 AccDes= 0.00D+00 IRadAn=         5 IDoV= 1 UseB2=F ITyADJ=14
 ICtDFT=  3500011 ScaDFX=  1.000000  1.000000  1.000000  1.000000
 FoFCou: FMM=F IPFlag=           0 FMFlag=      100000 FMFlg1=        2001
         NFxFlg=           0 DoJE=T BraDBF=F KetDBF=T FulRan=T
         wScrn=  0.000000 ICntrl=       500 IOpCl=  0 I1Cent=   200000004 NGrid=           0
         NMat0=    1 NMatS0=      1 NMatT0=    0 NMatD0=    1 NMtDS0=    0 NMtDT0=    0
 Symmetry not used in FoFCou.
 Requested convergence on RMS density matrix=1.00D-08 within 128 cycles.
 Requested convergence on MAX density matrix=1.00D-06.
 Requested convergence on             energy=1.00D-06.
 No special actions if energy rises.
 Integral accuracy reduced to 1.0D-05 until final iterations.
 Problem detected with inexpensive integrals.
 Switching to full accuracy and repeating last cycle.
 SCF Done:  E(RB3LYP) =  -4917.46746359     A.U. after   12 cycles
            NFock= 12  Conv=0.82D-08     -V/T= 2.0044
 Hyperfine terms turned off by default for NAtoms > 100.

 **********************************************************************

            Population analysis using the SCF Density.

 **********************************************************************

 Alpha  occ. eigenvalues --  -10.19502 -10.19502 -10.19502 -10.19502 -10.19502
 Alpha  occ. eigenvalues --  -10.19502 -10.19502 -10.19501 -10.19501 -10.19501
 Alpha  occ. eigenvalues --  -10.19501 -10.19501 -10.19500 -10.19500 -10.19500
 Alpha  occ. eigenvalues --  -10.19500 -10.19469 -10.19469 -10.19469 -10.19469
 Alpha  occ. eigenvalues --  -10.19469 -10.19469 -10.19469 -10.19469 -10.19469
 Alpha  occ. eigenvalues --  -10.19468 -10.19468 -10.19468 -10.19468 -10.19468
 Alpha  occ. eigenvalues --  -10.19468 -10.19468 -10.19227 -10.19227 -10.19227
 Alpha  occ. eigenvalues --  -10.19227 -10.19227 -10.19227 -10.19227 -10.19226
 Alpha  occ. eigenvalues --  -10.19226 -10.19226 -10.19226 -10.19226 -10.19226
 Alpha  occ. eigenvalues --  -10.19226 -10.19226 -10.19226 -10.19226 -10.19226
 Alpha  occ. eigenvalues --  -10.19226 -10.19226 -10.19225 -10.19225 -10.19225
 Alpha  occ. eigenvalues --  -10.19225 -10.19225 -10.19225 -10.19225 -10.19225
 Alpha  occ. eigenvalues --  -10.19225 -10.19224 -10.19224 -10.19224 -10.18305
 Alpha  occ. eigenvalues --  -10.18305 -10.18305 -10.18305 -10.18304 -10.18304
 Alpha  occ. eigenvalues --  -10.18304 -10.18304 -10.18304 -10.18304 -10.18304
 Alpha  occ. eigenvalues --  -10.18304 -10.18304 -10.18304 -10.18304 -10.18304
 Alpha  occ. eigenvalues --  -10.18304 -10.18304 -10.18304 -10.18303 -10.18303
 Alpha  occ. eigenvalues --  -10.18303 -10.18303 -10.18303 -10.18303 -10.18303
 Alpha  occ. eigenvalues --  -10.18303 -10.18303 -10.18303 -10.18303 -10.18303
 Alpha  occ. eigenvalues --  -10.18303 -10.18299 -10.18299 -10.18299 -10.18299
 Alpha  occ. eigenvalues --  -10.18299 -10.18299 -10.18299 -10.18299 -10.18299
 Alpha  occ. eigenvalues --  -10.18299 -10.18299 -10.18299 -10.18298 -10.18298
 Alpha  occ. eigenvalues --  -10.18298 -10.18298 -10.18230 -10.18230 -10.18230
 Alpha  occ. eigenvalues --  -10.18230 -10.18230 -10.18230 -10.18230 -10.18230
 Alpha  occ. eigenvalues --  -10.18230 -10.18230 -10.18230 -10.18230 -10.18230
 Alpha  occ. eigenvalues --  -10.18230 -10.18230 -10.18230  -0.90322  -0.90240
 Alpha  occ. eigenvalues --   -0.90240  -0.89994  -0.89994  -0.89588  -0.89588
 Alpha  occ. eigenvalues --   -0.89024  -0.89024  -0.88310  -0.88310  -0.87459
 Alpha  occ. eigenvalues --   -0.87458  -0.86492  -0.86492  -0.85578  -0.85275
 Alpha  occ. eigenvalues --   -0.84342  -0.84342  -0.83343  -0.83343  -0.82466
 Alpha  occ. eigenvalues --   -0.82466  -0.81681  -0.81681  -0.80918  -0.80918
 Alpha  occ. eigenvalues --   -0.80389  -0.80185  -0.80185  -0.80137  -0.80137
 Alpha  occ. eigenvalues --   -0.79552  -0.79552  -0.79369  -0.79369  -0.78922
 Alpha  occ. eigenvalues --   -0.78480  -0.78480  -0.77360  -0.77045  -0.77045
 Alpha  occ. eigenvalues --   -0.76859  -0.76859  -0.75944  -0.75944  -0.75491
 Alpha  occ. eigenvalues --   -0.75491  -0.74657  -0.74657  -0.73742  -0.73742
 Alpha  occ. eigenvalues --   -0.73387  -0.73387  -0.72706  -0.72706  -0.71742
 Alpha  occ. eigenvalues --   -0.71742  -0.71565  -0.71565  -0.70986  -0.70986
 Alpha  occ. eigenvalues --   -0.70679  -0.70470  -0.67531  -0.66511  -0.66511
 Alpha  occ. eigenvalues --   -0.65798  -0.65496  -0.65496  -0.64996  -0.64996
 Alpha  occ. eigenvalues --   -0.64777  -0.64777  -0.63968  -0.63968  -0.63887
 Alpha  occ. eigenvalues --   -0.63887  -0.63497  -0.63497  -0.62851  -0.62652
 Alpha  occ. eigenvalues --   -0.62652  -0.62085  -0.62085  -0.61503  -0.61503
 Alpha  occ. eigenvalues --   -0.61175  -0.61175  -0.60448  -0.60448  -0.59422
 Alpha  occ. eigenvalues --   -0.59421  -0.58433  -0.58433  -0.57968  -0.57728
 Alpha  occ. eigenvalues --   -0.57728  -0.57705  -0.57705  -0.57031  -0.57031
 Alpha  occ. eigenvalues --   -0.56552  -0.56466  -0.56466  -0.54644  -0.54644
 Alpha  occ. eigenvalues --   -0.54078  -0.53597  -0.53482  -0.53482  -0.53188
 Alpha  occ. eigenvalues --   -0.53188  -0.53036  -0.53036  -0.52324  -0.52324
 Alpha  occ. eigenvalues --   -0.51546  -0.51546  -0.51100  -0.51100  -0.50891
 Alpha  occ. eigenvalues --   -0.50891  -0.50796  -0.50796  -0.50329  -0.50324
 Alpha  occ. eigenvalues --   -0.50324  -0.48377  -0.48377  -0.48081  -0.47945
 Alpha  occ. eigenvalues --   -0.47945  -0.47873  -0.47873  -0.47628  -0.47628
 Alpha  occ. eigenvalues --   -0.47374  -0.47374  -0.47077  -0.47077  -0.46266
 Alpha  occ. eigenvalues --   -0.46266  -0.46144  -0.46144  -0.45955  -0.45955
 Alpha  occ. eigenvalues --   -0.45871  -0.45103  -0.45102  -0.44693  -0.44693
 Alpha  occ. eigenvalues --   -0.44627  -0.44204  -0.44204  -0.44196  -0.43949
 Alpha  occ. eigenvalues --   -0.43949  -0.43925  -0.43925  -0.43756  -0.43756
 Alpha  occ. eigenvalues --   -0.43577  -0.43550  -0.43550  -0.43308  -0.43308
 Alpha  occ. eigenvalues --   -0.43226  -0.43226  -0.43129  -0.43129  -0.42819
 Alpha  occ. eigenvalues --   -0.42819  -0.42533  -0.42433  -0.42433  -0.42113
 Alpha  occ. eigenvalues --   -0.42112  -0.42019  -0.42019  -0.41728  -0.41720
 Alpha  occ. eigenvalues --   -0.41632  -0.41632  -0.41049  -0.41048  -0.40959
 Alpha  occ. eigenvalues --   -0.40959  -0.40932  -0.40932  -0.40912  -0.40879
 Alpha  occ. eigenvalues --   -0.40879  -0.40685  -0.40685  -0.40390  -0.40390
 Alpha  occ. eigenvalues --   -0.40097  -0.40097  -0.40011  -0.40011  -0.39690
 Alpha  occ. eigenvalues --   -0.39690  -0.39576  -0.39576  -0.39300  -0.39300
 Alpha  occ. eigenvalues --   -0.39094  -0.38155  -0.38155  -0.37476  -0.37476
 Alpha  occ. eigenvalues --   -0.37303  -0.37170  -0.37170  -0.36936  -0.36936
 Alpha  occ. eigenvalues --   -0.36528  -0.36146  -0.36146  -0.35957  -0.35923
 Alpha  occ. eigenvalues --   -0.35923  -0.35256  -0.35256  -0.35017  -0.35017
 Alpha  occ. eigenvalues --   -0.34897  -0.34897  -0.34368  -0.34368  -0.34215
 Alpha  occ. eigenvalues --   -0.34215  -0.34068  -0.34068  -0.33818  -0.33818
 Alpha  occ. eigenvalues --   -0.33693  -0.33693  -0.33690  -0.33143  -0.33143
 Alpha  occ. eigenvalues --   -0.32977  -0.32977  -0.32646  -0.32646  -0.32530
 Alpha  occ. eigenvalues --   -0.32483  -0.32483  -0.31793  -0.31699  -0.31699
 Alpha  occ. eigenvalues --   -0.31470  -0.31470  -0.30815  -0.30815  -0.30474
 Alpha  occ. eigenvalues --   -0.30474  -0.29852  -0.29852  -0.29133  -0.28910
 Alpha  occ. eigenvalues --   -0.28910  -0.28134  -0.27332  -0.27332  -0.27032
 Alpha  occ. eigenvalues --   -0.27032  -0.26153  -0.26153  -0.25448  -0.25448
 Alpha  occ. eigenvalues --   -0.24008  -0.24008  -0.23185  -0.23185  -0.22543
 Alpha  occ. eigenvalues --   -0.22542  -0.21946  -0.21946  -0.20883  -0.20883
 Alpha  occ. eigenvalues --   -0.20814  -0.20813  -0.20171  -0.19985  -0.19985
 Alpha  occ. eigenvalues --   -0.19674
 Alpha virt. eigenvalues --   -0.08263  -0.07817  -0.07521  -0.07521  -0.07509
 Alpha virt. eigenvalues --   -0.07509  -0.06700  -0.06700  -0.05802  -0.05801
 Alpha virt. eigenvalues --   -0.05626  -0.05626  -0.04552  -0.04552  -0.04227
 Alpha virt. eigenvalues --   -0.04227  -0.02008  -0.02008  -0.01612  -0.01611
 Alpha virt. eigenvalues --   -0.00901  -0.00901  -0.00596  -0.00596  -0.00581
 Alpha virt. eigenvalues --    0.01333   0.01333   0.02573   0.02884   0.02884
 Alpha virt. eigenvalues --    0.02947   0.02947   0.03346   0.03465   0.03465
 Alpha virt. eigenvalues --    0.03615   0.03615   0.03812   0.03812   0.03990
 Alpha virt. eigenvalues --    0.03990   0.04333   0.04333   0.04346   0.04430
 Alpha virt. eigenvalues --    0.04498   0.04498   0.04509   0.04509   0.04714
 Alpha virt. eigenvalues --    0.04714   0.04870   0.04870   0.05085   0.05085
 Alpha virt. eigenvalues --    0.05684   0.05684   0.06204   0.06204   0.06248
 Alpha virt. eigenvalues --    0.06248   0.06589   0.06589   0.07041   0.07041
 Alpha virt. eigenvalues --    0.07211   0.07211   0.07607   0.07608   0.07960
 Alpha virt. eigenvalues --    0.07960   0.08546   0.08547   0.08615   0.08679
 Alpha virt. eigenvalues --    0.08679   0.09409   0.09623   0.09945   0.09945
 Alpha virt. eigenvalues --    0.10300   0.10300   0.10300   0.11274   0.11274
 Alpha virt. eigenvalues --    0.11303   0.11353   0.11353   0.12180   0.12180
 Alpha virt. eigenvalues --    0.12283   0.12283   0.12857   0.12903   0.12903
 Alpha virt. eigenvalues --    0.13043   0.13043   0.13759   0.13759   0.14720
 Alpha virt. eigenvalues --    0.14720   0.14994   0.14994   0.15781   0.15782
 Alpha virt. eigenvalues --    0.17055   0.17055   0.17421   0.17421   0.17831
 Alpha virt. eigenvalues --    0.17831   0.17893   0.17922   0.17922   0.17927
 Alpha virt. eigenvalues --    0.17927   0.17978   0.17978   0.18224   0.18814
 Alpha virt. eigenvalues --    0.18814   0.19574   0.19574   0.20175   0.20179
 Alpha virt. eigenvalues --    0.20706   0.20706   0.20920   0.22020   0.22020
 Alpha virt. eigenvalues --    0.22237   0.22237   0.22253   0.22253   0.22271
 Alpha virt. eigenvalues --    0.22271   0.22474   0.22474   0.22569   0.22569
 Alpha virt. eigenvalues --    0.22712   0.22712   0.22715   0.23169   0.23392
 Alpha virt. eigenvalues --    0.23583   0.23583   0.23702   0.23703   0.24111
 Alpha virt. eigenvalues --    0.24235   0.24235   0.24443   0.24443   0.24610
 Alpha virt. eigenvalues --    0.24611   0.24749   0.24749   0.24871   0.24872
 Alpha virt. eigenvalues --    0.25820   0.25820   0.26043   0.26043   0.26505
 Alpha virt. eigenvalues --    0.26526   0.26526   0.26648   0.26648   0.26661
 Alpha virt. eigenvalues --    0.26662   0.26972   0.26972   0.27294   0.27294
 Alpha virt. eigenvalues --    0.27396   0.27690   0.27727   0.27727   0.27827
 Alpha virt. eigenvalues --    0.27827   0.27961   0.27961   0.27984   0.28833
 Alpha virt. eigenvalues --    0.28833   0.29455   0.29455   0.29740   0.29740
 Alpha virt. eigenvalues --    0.29799   0.29800   0.30146   0.30146   0.30246
 Alpha virt. eigenvalues --    0.30246   0.30347   0.30347   0.30609   0.30609
 Alpha virt. eigenvalues --    0.30924   0.30924   0.31197   0.31197   0.31483
 Alpha virt. eigenvalues --    0.32050   0.32050   0.32762   0.33522   0.33522
 Alpha virt. eigenvalues --    0.33525   0.33576   0.33576   0.34005   0.34005
 Alpha virt. eigenvalues --    0.34428   0.34523   0.34524   0.34625   0.34625
 Alpha virt. eigenvalues --    0.35629   0.35649   0.35649   0.35710   0.35710
 Alpha virt. eigenvalues --    0.35813   0.35814   0.36049   0.36049   0.36112
 Alpha virt. eigenvalues --    0.36112   0.36188   0.36250   0.36250   0.36411
 Alpha virt. eigenvalues --    0.36411   0.36478   0.36478   0.36689   0.36707
 Alpha virt. eigenvalues --    0.36708   0.36728   0.36728   0.37043   0.37045
 Alpha virt. eigenvalues --    0.37210   0.37210   0.37492   0.37492   0.37590
 Alpha virt. eigenvalues --    0.37590   0.37731   0.37731   0.37785   0.37786
 Alpha virt. eigenvalues --    0.37930   0.38082   0.38082   0.38120   0.38120
 Alpha virt. eigenvalues --    0.38202   0.38203   0.38228   0.38228   0.38591
 Alpha virt. eigenvalues --    0.38591   0.38653   0.38654   0.39010   0.39287
 Alpha virt. eigenvalues --    0.39459   0.39459   0.39516   0.39516   0.39676
 Alpha virt. eigenvalues --    0.39677   0.39713   0.39863   0.39863   0.40085
 Alpha virt. eigenvalues --    0.40085   0.40135   0.40135   0.40189   0.40190
 Alpha virt. eigenvalues --    0.40201   0.40201   0.40514   0.40771   0.40958
 Alpha virt. eigenvalues --    0.40958   0.41018   0.41018   0.41059   0.41059
 Alpha virt. eigenvalues --    0.41069   0.41069   0.41453   0.41478   0.41478
 Alpha virt. eigenvalues --    0.41502   0.41503   0.41682   0.41682   0.42242
 Alpha virt. eigenvalues --    0.42242   0.42321   0.42322   0.42433   0.42529
 Alpha virt. eigenvalues --    0.42546   0.42546   0.42579   0.42580   0.42672
 Alpha virt. eigenvalues --    0.42672   0.42972   0.42972   0.43057   0.43058
 Alpha virt. eigenvalues --    0.43124   0.43124   0.43202   0.43202   0.43691
 Alpha virt. eigenvalues --    0.43691   0.43696   0.43696   0.43812   0.43821
 Alpha virt. eigenvalues --    0.44274   0.44274   0.44373   0.44373   0.44545
 Alpha virt. eigenvalues --    0.44596   0.44596   0.44958   0.44958   0.45054
 Alpha virt. eigenvalues --    0.45054   0.45210   0.45249   0.45249   0.45336
 Alpha virt. eigenvalues --    0.45337   0.45392   0.45392   0.45396   0.45396
 Alpha virt. eigenvalues --    0.45524   0.45524   0.45833   0.45834   0.45845
 Alpha virt. eigenvalues --    0.45972   0.45972   0.46145   0.46145   0.46248
 Alpha virt. eigenvalues --    0.46248   0.46267   0.46267   0.46351   0.46351
 Alpha virt. eigenvalues --    0.46417   0.46417   0.46475   0.46748   0.46748
 Alpha virt. eigenvalues --    0.47179   0.47179   0.47295   0.47295   0.47302
 Alpha virt. eigenvalues --    0.47302   0.47311   0.47311   0.47457   0.47458
 Alpha virt. eigenvalues --    0.47509   0.47545   0.47807   0.47876   0.48254
 Alpha virt. eigenvalues --    0.48254   0.48269   0.48269   0.48386   0.48386
 Alpha virt. eigenvalues --    0.48401   0.48442   0.48442   0.48448   0.48448
 Alpha virt. eigenvalues --    0.48505   0.48506   0.48771   0.48771   0.48887
 Alpha virt. eigenvalues --    0.48887   0.48907   0.48907   0.49148   0.49148
 Alpha virt. eigenvalues --    0.49778   0.49778   0.49951   0.49952   0.50165
 Alpha virt. eigenvalues --    0.50232   0.50232   0.50506   0.50507   0.51252
 Alpha virt. eigenvalues --    0.51253   0.51392   0.51392   0.51428   0.51429
 Alpha virt. eigenvalues --    0.51467   0.51467   0.51538   0.51538   0.51860
 Alpha virt. eigenvalues --    0.51861   0.52073   0.52073   0.52660   0.52770
 Alpha virt. eigenvalues --    0.53046   0.53046   0.53056   0.53056   0.53198
 Alpha virt. eigenvalues --    0.53264   0.53264   0.53461   0.53463   0.53552
 Alpha virt. eigenvalues --    0.53553   0.53742   0.53742   0.53961   0.54560
 Alpha virt. eigenvalues --    0.54560   0.54768   0.54768   0.54781   0.54781
 Alpha virt. eigenvalues --    0.55359   0.55360   0.55502   0.55502   0.55580
 Alpha virt. eigenvalues --    0.55581   0.55752   0.55752   0.55857   0.56027
 Alpha virt. eigenvalues --    0.56027   0.57749   0.57749   0.57998   0.58380
 Alpha virt. eigenvalues --    0.58380   0.58779   0.58781   0.58781   0.58793
 Alpha virt. eigenvalues --    0.58793   0.59019   0.59019   0.59112   0.59112
 Alpha virt. eigenvalues --    0.59133   0.59334   0.59335   0.59729   0.59729
 Alpha virt. eigenvalues --    0.60286   0.60286   0.60466   0.60466   0.60593
 Alpha virt. eigenvalues --    0.60595   0.60636   0.60636   0.60727   0.60800
 Alpha virt. eigenvalues --    0.60800   0.60919   0.60920   0.61390   0.61390
 Alpha virt. eigenvalues --    0.61610   0.61942   0.61942   0.62012   0.62150
 Alpha virt. eigenvalues --    0.62150   0.62498   0.62498   0.62588   0.62589
 Alpha virt. eigenvalues --    0.62652   0.63099   0.63099   0.63220   0.63220
 Alpha virt. eigenvalues --    0.63465   0.63466   0.63632   0.63632   0.64299
 Alpha virt. eigenvalues --    0.64332   0.64423   0.64423   0.65004   0.65004
 Alpha virt. eigenvalues --    0.65121   0.65121   0.65368   0.65368   0.65482
 Alpha virt. eigenvalues --    0.65482   0.66102   0.66104   0.66105   0.66108
 Alpha virt. eigenvalues --    0.67208   0.67208   0.67250   0.67250   0.67386
 Alpha virt. eigenvalues --    0.67741   0.67744   0.67930   0.67930   0.68080
 Alpha virt. eigenvalues --    0.68082   0.68479   0.68479   0.69081   0.69103
 Alpha virt. eigenvalues --    0.69103   0.69191   0.69192   0.69392   0.69392
 Alpha virt. eigenvalues --    0.69575   0.69638   0.69638   0.70696   0.70696
 Alpha virt. eigenvalues --    0.71315   0.71316   0.71657   0.71657   0.71662
 Alpha virt. eigenvalues --    0.71663   0.71767   0.72105   0.72105   0.72122
 Alpha virt. eigenvalues --    0.72122   0.72950   0.72951   0.73069   0.73071
 Alpha virt. eigenvalues --    0.73206   0.73372   0.73372   0.73402   0.73402
 Alpha virt. eigenvalues --    0.73576   0.74660   0.74662   0.74849   0.74849
 Alpha virt. eigenvalues --    0.75084   0.75142   0.75142   0.75210   0.75261
 Alpha virt. eigenvalues --    0.75261   0.75376   0.75377   0.75380   0.75380
 Alpha virt. eigenvalues --    0.75495   0.75496   0.76805   0.76805   0.76865
 Alpha virt. eigenvalues --    0.76865   0.77350   0.77351   0.77811   0.77811
 Alpha virt. eigenvalues --    0.77940   0.77941   0.77969   0.77969   0.78077
 Alpha virt. eigenvalues --    0.78077   0.78340   0.78341   0.78350   0.78843
 Alpha virt. eigenvalues --    0.78843   0.78865   0.78865   0.79037   0.79038
 Alpha virt. eigenvalues --    0.79152   0.79513   0.79513   0.79635   0.79876
 Alpha virt. eigenvalues --    0.79876   0.80062   0.80083   0.80083   0.80100
 Alpha virt. eigenvalues --    0.80610   0.80610   0.80703   0.80703   0.80753
 Alpha virt. eigenvalues --    0.80753   0.81454   0.81454   0.81630   0.81630
 Alpha virt. eigenvalues --    0.82068   0.82068   0.82532   0.82533   0.82548
 Alpha virt. eigenvalues --    0.82548   0.82654   0.82654   0.82805   0.82805
 Alpha virt. eigenvalues --    0.83036   0.83037   0.83057   0.83295   0.83297
 Alpha virt. eigenvalues --    0.83723   0.83723   0.84116   0.84117   0.84375
 Alpha virt. eigenvalues --    0.84375   0.84615   0.84615   0.84837   0.84842
 Alpha virt. eigenvalues --    0.85146   0.85180   0.85180   0.85991   0.86036
 Alpha virt. eigenvalues --    0.86285   0.86285   0.86409   0.86413   0.86479
 Alpha virt. eigenvalues --    0.86479   0.86914   0.87273   0.87405   0.87406
 Alpha virt. eigenvalues --    0.87634   0.87634   0.87812   0.87812   0.87975
 Alpha virt. eigenvalues --    0.87975   0.88155   0.88165   0.88165   0.88174
 Alpha virt. eigenvalues --    0.88175   0.88526   0.88526   0.88619   0.88733
 Alpha virt. eigenvalues --    0.88736   0.88798   0.88798   0.89209   0.89209
 Alpha virt. eigenvalues --    0.89265   0.89265   0.90020   0.90652   0.90652
 Alpha virt. eigenvalues --    0.90784   0.90784   0.90991   0.91480   0.91480
 Alpha virt. eigenvalues --    0.91824   0.91824   0.92324   0.92326   0.92993
 Alpha virt. eigenvalues --    0.93001   0.93001   0.93254   0.93254   0.93465
 Alpha virt. eigenvalues --    0.93466   0.93871   0.93871   0.93895   0.93895
 Alpha virt. eigenvalues --    0.94344   0.94346   0.94558   0.94558   0.94790
 Alpha virt. eigenvalues --    0.95231   0.95233   0.95298   0.95298   0.95446
 Alpha virt. eigenvalues --    0.95446   0.95449   0.95449   0.95457   0.96184
 Alpha virt. eigenvalues --    0.96191   0.96416   0.96416   0.96797   0.96848
 Alpha virt. eigenvalues --    0.96851   0.97691   0.97691   0.98254   0.98255
 Alpha virt. eigenvalues --    0.98669   0.98669   0.99031   0.99033   1.00117
 Alpha virt. eigenvalues --    1.00117   1.00288   1.00288   1.00350   1.00354
 Alpha virt. eigenvalues --    1.00438   1.00470   1.00471   1.00763   1.00763
 Alpha virt. eigenvalues --    1.00918   1.00976   1.00977   1.01071   1.01071
 Alpha virt. eigenvalues --    1.01119   1.01119   1.02103   1.02535   1.02535
 Alpha virt. eigenvalues --    1.02586   1.02589   1.03238   1.03242   1.03526
 Alpha virt. eigenvalues --    1.03526   1.03772   1.03772   1.03982   1.04156
 Alpha virt. eigenvalues --    1.04159   1.04165   1.04174   1.04174   1.05030
 Alpha virt. eigenvalues --    1.05779   1.05779   1.07201   1.07203   1.07402
 Alpha virt. eigenvalues --    1.07402   1.07674   1.07674   1.07745   1.07745
 Alpha virt. eigenvalues --    1.07938   1.08140   1.08142   1.08167   1.08167
 Alpha virt. eigenvalues --    1.08927   1.08927   1.09170   1.09170   1.09328
 Alpha virt. eigenvalues --    1.09328   1.09574   1.10125   1.10129   1.10820
 Alpha virt. eigenvalues --    1.10820   1.11433   1.11434   1.11813   1.11963
 Alpha virt. eigenvalues --    1.11963   1.12987   1.12987   1.13103   1.13103
 Alpha virt. eigenvalues --    1.13328   1.13329   1.13381   1.13381   1.14076
 Alpha virt. eigenvalues --    1.14409   1.14409   1.14507   1.14508   1.14545
 Alpha virt. eigenvalues --    1.14545   1.14578   1.14852   1.14929   1.14977
 Alpha virt. eigenvalues --    1.14977   1.15141   1.15145   1.15185   1.15185
 Alpha virt. eigenvalues --    1.15539   1.15539   1.15792   1.15792   1.15865
 Alpha virt. eigenvalues --    1.15872   1.16010   1.16016   1.16888   1.16888
 Alpha virt. eigenvalues --    1.17075   1.17075   1.17118   1.17138   1.17141
 Alpha virt. eigenvalues --    1.17228   1.17228   1.17591   1.17591   1.18228
 Alpha virt. eigenvalues --    1.18232   1.18639   1.18640   1.18986   1.18986
 Alpha virt. eigenvalues --    1.19345   1.19345   1.19531   1.19533   1.19546
 Alpha virt. eigenvalues --    1.19547   1.19563   1.19573   1.19639   1.19639
 Alpha virt. eigenvalues --    1.20162   1.20519   1.20519   1.20721   1.20737
 Alpha virt. eigenvalues --    1.20738   1.20797   1.21254   1.21254   1.21911
 Alpha virt. eigenvalues --    1.21911   1.21939   1.22059   1.22059   1.22590
 Alpha virt. eigenvalues --    1.22633   1.22636   1.22694   1.22705   1.22788
 Alpha virt. eigenvalues --    1.22788   1.23260   1.23260   1.23353   1.23356
 Alpha virt. eigenvalues --    1.23553   1.23554   1.23919   1.23919   1.25235
 Alpha virt. eigenvalues --    1.25235   1.25401   1.25404   1.27092   1.27343
 Alpha virt. eigenvalues --    1.27343   1.27904   1.28203   1.29045   1.29045
 Alpha virt. eigenvalues --    1.29131   1.29133   1.29238   1.29246   1.29644
 Alpha virt. eigenvalues --    1.29644   1.29700   1.29700   1.29990   1.30235
 Alpha virt. eigenvalues --    1.30235   1.30489   1.30490   1.30934   1.30938
 Alpha virt. eigenvalues --    1.31277   1.31277   1.31724   1.31724   1.31837
 Alpha virt. eigenvalues --    1.31839   1.32052   1.32052   1.32463   1.32468
 Alpha virt. eigenvalues --    1.33481   1.33482   1.33841   1.33841   1.33844
 Alpha virt. eigenvalues --    1.33844   1.33869   1.33869   1.34347   1.34612
 Alpha virt. eigenvalues --    1.34615   1.34787   1.34791   1.34825   1.34843
 Alpha virt. eigenvalues --    1.35791   1.35791   1.36970   1.36970   1.39274
 Alpha virt. eigenvalues --    1.39553   1.39560   1.39560   1.39935   1.39935
 Alpha virt. eigenvalues --    1.39945   1.40572   1.40572   1.40605   1.41006
 Alpha virt. eigenvalues --    1.41333   1.41333   1.41830   1.41831   1.42026
 Alpha virt. eigenvalues --    1.42026   1.42318   1.42318   1.42413   1.42413
 Alpha virt. eigenvalues --    1.43037   1.43037   1.43489   1.43492   1.43990
 Alpha virt. eigenvalues --    1.43990   1.44056   1.44058   1.44169   1.44170
 Alpha virt. eigenvalues --    1.44235   1.44235   1.45652   1.45779   1.45779
 Alpha virt. eigenvalues --    1.46389   1.46389   1.46625   1.46820   1.46820
 Alpha virt. eigenvalues --    1.47151   1.47154   1.47267   1.47267   1.47350
 Alpha virt. eigenvalues --    1.47415   1.47415   1.47427   1.47427   1.47575
 Alpha virt. eigenvalues --    1.47577   1.47757   1.47758   1.48461   1.48461
 Alpha virt. eigenvalues --    1.49317   1.49318   1.49584   1.49584   1.49607
 Alpha virt. eigenvalues --    1.49608   1.50138   1.50138   1.50175   1.50247
 Alpha virt. eigenvalues --    1.50743   1.50743   1.50828   1.50828   1.50848
 Alpha virt. eigenvalues --    1.50849   1.51890   1.51890   1.52120   1.52120
 Alpha virt. eigenvalues --    1.52175   1.52177   1.52233   1.52233   1.52261
 Alpha virt. eigenvalues --    1.54162   1.54162   1.54491   1.54491   1.54891
 Alpha virt. eigenvalues --    1.55051   1.55051   1.55103   1.55211   1.55211
 Alpha virt. eigenvalues --    1.55448   1.55449   1.55506   1.55507   1.55561
 Alpha virt. eigenvalues --    1.55561   1.55906   1.55906   1.55931   1.55931
 Alpha virt. eigenvalues --    1.56090   1.56090   1.56112   1.56112   1.56187
 Alpha virt. eigenvalues --    1.56187   1.56219   1.56469   1.56472   1.57975
 Alpha virt. eigenvalues --    1.57975   1.58783   1.60151   1.60151   1.60185
 Alpha virt. eigenvalues --    1.60185   1.60395   1.60395   1.60500   1.60701
 Alpha virt. eigenvalues --    1.60703   1.61359   1.61445   1.61445   1.61804
 Alpha virt. eigenvalues --    1.61804   1.61984   1.61985   1.63546   1.63616
 Alpha virt. eigenvalues --    1.63616   1.63729   1.63731   1.64245   1.64245
 Alpha virt. eigenvalues --    1.64689   1.65005   1.65006   1.65473   1.65473
 Alpha virt. eigenvalues --    1.65726   1.65726   1.66390   1.66392   1.67173
 Alpha virt. eigenvalues --    1.67190   1.67190   1.67321   1.67321   1.67392
 Alpha virt. eigenvalues --    1.67393   1.67633   1.68290   1.68291   1.69770
 Alpha virt. eigenvalues --    1.69770   1.69987   1.69987   1.71534   1.71535
 Alpha virt. eigenvalues --    1.72444   1.73003   1.73003   1.73134   1.73134
 Alpha virt. eigenvalues --    1.73847   1.73847   1.73979   1.73979   1.74473
 Alpha virt. eigenvalues --    1.74477   1.74599   1.74602   1.76006   1.76006
 Alpha virt. eigenvalues --    1.76099   1.76099   1.76485   1.76508   1.76508
 Alpha virt. eigenvalues --    1.76691   1.76691   1.76792   1.76796   1.77101
 Alpha virt. eigenvalues --    1.77342   1.77934   1.77934   1.78185   1.78185
 Alpha virt. eigenvalues --    1.78536   1.78536   1.78670   1.78671   1.79223
 Alpha virt. eigenvalues --    1.79621   1.79621   1.80197   1.80199   1.80473
 Alpha virt. eigenvalues --    1.80474   1.80497   1.80498   1.80758   1.80758
 Alpha virt. eigenvalues --    1.81086   1.81651   1.81651   1.82014   1.82042
 Alpha virt. eigenvalues --    1.82042   1.82221   1.82224   1.83292   1.83292
 Alpha virt. eigenvalues --    1.83421   1.83421   1.83844   1.83982   1.83982
 Alpha virt. eigenvalues --    1.84206   1.84207   1.84343   1.84343   1.84408
 Alpha virt. eigenvalues --    1.84409   1.84606   1.84606   1.85117   1.85117
 Alpha virt. eigenvalues --    1.86759   1.86759   1.86912   1.86912   1.87134
 Alpha virt. eigenvalues --    1.87135   1.87206   1.87334   1.87334   1.87395
 Alpha virt. eigenvalues --    1.87472   1.87472   1.87519   1.87519   1.87617
 Alpha virt. eigenvalues --    1.87617   1.87636   1.87767   1.87768   1.87875
 Alpha virt. eigenvalues --    1.87875   1.88062   1.88062   1.88466   1.88466
 Alpha virt. eigenvalues --    1.88705   1.88706   1.88917   1.89620   1.89620
 Alpha virt. eigenvalues --    1.91028   1.91028   1.91570   1.91741   1.91741
 Alpha virt. eigenvalues --    1.92199   1.92200   1.92283   1.92284   1.92732
 Alpha virt. eigenvalues --    1.92734   1.92947   1.93050   1.93066   1.93066
 Alpha virt. eigenvalues --    1.93156   1.93156   1.93203   1.93203   1.93520
 Alpha virt. eigenvalues --    1.93736   1.93736   1.93862   1.93862   1.94138
 Alpha virt. eigenvalues --    1.94138   1.94551   1.94551   1.94906   1.94906
 Alpha virt. eigenvalues --    1.94918   1.95058   1.95060   1.95307   1.95307
 Alpha virt. eigenvalues --    1.95364   1.95364   1.95480   1.95480   1.95723
 Alpha virt. eigenvalues --    1.96123   1.96123   1.96190   1.96190   1.98025
 Alpha virt. eigenvalues --    1.98026   1.98323   1.98323   1.98682   1.98682
 Alpha virt. eigenvalues --    1.99055   1.99056   1.99542   1.99859   1.99859
 Alpha virt. eigenvalues --    2.00808   2.00815   2.01402   2.01402   2.01627
 Alpha virt. eigenvalues --    2.02094   2.02629   2.02629   2.02631   2.02631
 Alpha virt. eigenvalues --    2.02976   2.02977   2.03153   2.03157   2.03255
 Alpha virt. eigenvalues --    2.03256   2.03405   2.03405   2.03967   2.03967
 Alpha virt. eigenvalues --    2.04192   2.05443   2.05443   2.05474   2.05474
 Alpha virt. eigenvalues --    2.06153   2.06155   2.07314   2.07314   2.07531
 Alpha virt. eigenvalues --    2.07531   2.08264   2.10090   2.10530   2.10531
 Alpha virt. eigenvalues --    2.10591   2.10591   2.11533   2.11946   2.11946
 Alpha virt. eigenvalues --    2.13075   2.13077   2.13259   2.13259   2.14481
 Alpha virt. eigenvalues --    2.14481   2.15583   2.15583   2.15625   2.15625
 Alpha virt. eigenvalues --    2.16364   2.17681   2.17882   2.17882   2.19038
 Alpha virt. eigenvalues --    2.19038   2.19797   2.19798   2.20808   2.20812
 Alpha virt. eigenvalues --    2.21003   2.21003   2.21957   2.21957   2.22165
 Alpha virt. eigenvalues --    2.23200   2.23200   2.23395   2.23397   2.24413
 Alpha virt. eigenvalues --    2.24413   2.24851   2.24853   2.25244   2.25245
 Alpha virt. eigenvalues --    2.26220   2.26220   2.26507   2.26507   2.26719
 Alpha virt. eigenvalues --    2.26719   2.26834   2.27226   2.27227   2.27443
 Alpha virt. eigenvalues --    2.28997   2.29194   2.29194   2.29866   2.29867
 Alpha virt. eigenvalues --    2.30502   2.30502   2.30944   2.30944   2.31385
 Alpha virt. eigenvalues --    2.31385   2.31481   2.31481   2.31708   2.31708
 Alpha virt. eigenvalues --    2.31775   2.31976   2.31978   2.32071   2.32071
 Alpha virt. eigenvalues --    2.32101   2.32101   2.32116   2.32346   2.32348
 Alpha virt. eigenvalues --    2.32395   2.32395   2.33151   2.33155   2.33846
 Alpha virt. eigenvalues --    2.33939   2.33939   2.34376   2.34379   2.34524
 Alpha virt. eigenvalues --    2.34524   2.34693   2.34748   2.34748   2.34989
 Alpha virt. eigenvalues --    2.35080   2.35080   2.35111   2.35112   2.35671
 Alpha virt. eigenvalues --    2.35671   2.35912   2.35912   2.38088   2.38088
 Alpha virt. eigenvalues --    2.38810   2.38812   2.39029   2.39029   2.39836
 Alpha virt. eigenvalues --    2.39836   2.40240   2.40240   2.40245   2.40398
 Alpha virt. eigenvalues --    2.40400   2.40896   2.41179   2.41179   2.41248
 Alpha virt. eigenvalues --    2.41248   2.42049   2.42140   2.42140   2.43365
 Alpha virt. eigenvalues --    2.43365   2.44259   2.44259   2.45198   2.45198
 Alpha virt. eigenvalues --    2.46365   2.46812   2.46814   2.47084   2.47084
 Alpha virt. eigenvalues --    2.48231   2.48231   2.48390   2.48391   2.48771
 Alpha virt. eigenvalues --    2.49447   2.49447   2.50068   2.50115   2.50115
 Alpha virt. eigenvalues --    2.50218   2.50219   2.50263   2.50264   2.50710
 Alpha virt. eigenvalues --    2.50710   2.50963   2.50963   2.51706   2.51707
 Alpha virt. eigenvalues --    2.51801   2.51805   2.52369   2.52637   2.52637
 Alpha virt. eigenvalues --    2.52894   2.52894   2.52999   2.52999   2.53037
 Alpha virt. eigenvalues --    2.53488   2.53489   2.56330   2.56615   2.56615
 Alpha virt. eigenvalues --    2.56982   2.56982   2.57121   2.57121   2.57127
 Alpha virt. eigenvalues --    2.57179   2.57179   2.57256   2.57256   2.57297
 Alpha virt. eigenvalues --    2.57299   2.57359   2.57359   2.58910   2.58914
 Alpha virt. eigenvalues --    2.58951   2.58951   2.59031   2.59031   2.59098
 Alpha virt. eigenvalues --    2.59157   2.59261   2.59261   2.59279   2.59280
 Alpha virt. eigenvalues --    2.59310   2.59483   2.59484   2.59567   2.59567
 Alpha virt. eigenvalues --    2.59622   2.59622   2.60936   2.60940   2.62393
 Alpha virt. eigenvalues --    2.62393   2.62993   2.62993   2.63528   2.63528
 Alpha virt. eigenvalues --    2.64043   2.64043   2.64417   2.64417   2.64554
 Alpha virt. eigenvalues --    2.65135   2.65135   2.65668   2.65668   2.65675
 Alpha virt. eigenvalues --    2.65675   2.65749   2.66257   2.66578   2.66578
 Alpha virt. eigenvalues --    2.67992   2.67993   2.68067   2.68068   2.70247
 Alpha virt. eigenvalues --    2.70247   2.70597   2.70643   2.70643   2.70900
 Alpha virt. eigenvalues --    2.70900   2.71598   2.71598   2.72420   2.72421
 Alpha virt. eigenvalues --    2.72724   2.72724   2.73320   2.73322   2.74301
 Alpha virt. eigenvalues --    2.74301   2.74450   2.74453   2.74569   2.74570
 Alpha virt. eigenvalues --    2.74721   2.74721   2.74751   2.74751   2.74871
 Alpha virt. eigenvalues --    2.75215   2.76237   2.76237   2.76993   2.76996
 Alpha virt. eigenvalues --    2.77394   2.77394   2.77546   2.77546   2.77577
 Alpha virt. eigenvalues --    2.77577   2.77900   2.78149   2.78149   2.79082
 Alpha virt. eigenvalues --    2.79085   2.79708   2.79709   2.79856   2.79856
 Alpha virt. eigenvalues --    2.80171   2.81299   2.81299   2.81359   2.82216
 Alpha virt. eigenvalues --    2.82216   2.82268   2.83229   2.83229   2.85292
 Alpha virt. eigenvalues --    2.85292   2.85908   2.86207   2.86207   2.86379
 Alpha virt. eigenvalues --    2.86379   2.86389   2.86395   2.86555   2.87526
 Alpha virt. eigenvalues --    2.87530   2.87639   2.87639   2.87712   2.87715
 Alpha virt. eigenvalues --    2.88629   2.88629   2.89756   2.89758   2.92558
 Alpha virt. eigenvalues --    2.92558   2.92699   2.92701   2.92996   2.92996
 Alpha virt. eigenvalues --    2.93928   2.94112   2.94112   2.94598   2.94598
 Alpha virt. eigenvalues --    2.95027   2.95033   2.95109   2.95111   2.96146
 Alpha virt. eigenvalues --    2.96147   2.97302   2.97302   2.98291   2.99051
 Alpha virt. eigenvalues --    2.99051   2.99239   2.99272   2.99272   2.99272
 Alpha virt. eigenvalues --    2.99273   3.00689   3.00689   3.01102   3.02390
 Alpha virt. eigenvalues --    3.02391   3.02710   3.03654   3.03654   3.03795
 Alpha virt. eigenvalues --    3.03795   3.04331   3.04333   3.06790   3.06790
 Alpha virt. eigenvalues --    3.07014   3.07014   3.07237   3.07237   3.07511
 Alpha virt. eigenvalues --    3.07787   3.07788   3.08747   3.08747   3.09735
 Alpha virt. eigenvalues --    3.09739   3.10537   3.10537   3.10858   3.10886
 Alpha virt. eigenvalues --    3.11604   3.11604   3.11992   3.12204   3.12204
 Alpha virt. eigenvalues --    3.12644   3.12645   3.12739   3.12741   3.13056
 Alpha virt. eigenvalues --    3.13056   3.13261   3.13261   3.13297   3.13298
 Alpha virt. eigenvalues --    3.14717   3.15025   3.15025   3.16036   3.16083
 Alpha virt. eigenvalues --    3.16084   3.16303   3.16303   3.16969   3.16969
 Alpha virt. eigenvalues --    3.17400   3.17400   3.18100   3.18100   3.18219
 Alpha virt. eigenvalues --    3.18219   3.18843   3.18843   3.19027   3.19080
 Alpha virt. eigenvalues --    3.19080   3.19121   3.19123   3.19458   3.19458
 Alpha virt. eigenvalues --    3.20278   3.20278   3.20865   3.20869   3.21553
 Alpha virt. eigenvalues --    3.21553   3.21944   3.24694   3.24967   3.25000
 Alpha virt. eigenvalues --    3.25000   3.25020   3.25020   3.25123   3.25124
 Alpha virt. eigenvalues --    3.25340   3.25340   3.25513   3.25514   3.25520
 Alpha virt. eigenvalues --    3.25521   3.25539   3.25539   3.25640   3.25642
 Alpha virt. eigenvalues --    3.25735   3.25735   3.25766   3.25910   3.25910
 Alpha virt. eigenvalues --    3.26354   3.26355   3.27163   3.27163   3.28091
 Alpha virt. eigenvalues --    3.28092   3.28765   3.28765   3.28987   3.29690
 Alpha virt. eigenvalues --    3.29759   3.29759   3.30112   3.30113   3.30676
 Alpha virt. eigenvalues --    3.30676   3.31142   3.31142   3.31447   3.31447
 Alpha virt. eigenvalues --    3.31664   3.31667   3.31880   3.31880   3.32043
 Alpha virt. eigenvalues --    3.32807   3.32868   3.33058   3.33058   3.33173
 Alpha virt. eigenvalues --    3.33173   3.33690   3.33693   3.33896   3.33897
 Alpha virt. eigenvalues --    3.34561   3.34561   3.34872   3.34872   3.35280
 Alpha virt. eigenvalues --    3.35281   3.37714   3.37961   3.37961   3.38578
 Alpha virt. eigenvalues --    3.38579   3.38969   3.38970   3.39082   3.39082
 Alpha virt. eigenvalues --    3.39436   3.39436   3.40541   3.40544   3.41206
 Alpha virt. eigenvalues --    3.41206   3.41365   3.41859   3.41861   3.41918
 Alpha virt. eigenvalues --    3.41918   3.42286   3.42286   3.42509   3.42509
 Alpha virt. eigenvalues --    3.42595   3.43878   3.43878   3.43977   3.44257
 Alpha virt. eigenvalues --    3.44258   3.44385   3.44385   3.44423   3.44423
 Alpha virt. eigenvalues --    3.44453   3.44872   3.44872   3.45450   3.45452
 Alpha virt. eigenvalues --    3.45702   3.45703   3.46346   3.46346   3.46554
 Alpha virt. eigenvalues --    3.46556   3.48358   3.48358   3.48914   3.48914
 Alpha virt. eigenvalues --    3.48998   3.49150   3.49150   3.49706   3.49706
 Alpha virt. eigenvalues --    3.50570   3.50572   3.50955   3.50955   3.51302
 Alpha virt. eigenvalues --    3.51302   3.51561   3.52489   3.52489   3.53047
 Alpha virt. eigenvalues --    3.58276   3.58357   3.58357   3.58947   3.58949
 Alpha virt. eigenvalues --    3.59910   3.59910   3.60865   3.60865   3.62014
 Alpha virt. eigenvalues --    3.62014   3.63809   3.63811   3.66219   3.66219
 Alpha virt. eigenvalues --    3.67719   3.71997   3.72797   3.72797   3.73606
 Alpha virt. eigenvalues --    3.73606   3.73728   3.73728   3.73738   3.73738
 Alpha virt. eigenvalues --    3.73991   3.73991   3.74024   3.74025   3.74731
 Alpha virt. eigenvalues --    3.74731   3.75082   3.93301   3.93301   3.93560
 Alpha virt. eigenvalues --    3.93560   3.93871   3.93871   3.94179   3.94179
 Alpha virt. eigenvalues --    3.94473   3.95098   3.95098   3.96362   3.96362
 Alpha virt. eigenvalues --    3.96799   3.96865   3.96865   4.01628   4.01629
 Alpha virt. eigenvalues --    4.01629   4.02380   4.02381   4.04143   4.04143
 Alpha virt. eigenvalues --    4.06263   4.06263   4.08410   4.08410   4.10632
 Alpha virt. eigenvalues --    4.10633   4.13192   4.13192   4.15290   4.19688
 Alpha virt. eigenvalues --    4.23045   4.23045   4.29149   4.29150   4.36663
 Alpha virt. eigenvalues --    4.36663   4.45324   4.45327   4.54766   4.54766
 Alpha virt. eigenvalues --    4.64022   4.64037   4.71027   4.71027   4.71986
 Alpha virt. eigenvalues --    4.71994   4.71994   4.71994   4.72047   4.72235
 Alpha virt. eigenvalues --    4.72235   4.72762   4.72763   4.73471   4.73471
 Alpha virt. eigenvalues --    4.73587   4.73660   4.74063   4.74063   4.74076
 Alpha virt. eigenvalues --    4.74077   4.77408   4.77409   4.77476   4.77476
 Alpha virt. eigenvalues --    4.78130   4.78570   4.78570   4.80189   4.80191
 Alpha virt. eigenvalues --    4.81843   4.81843   4.83290   4.83293   4.84314
 Alpha virt. eigenvalues --    4.84314   4.84690  23.10493  23.12533  23.12533
 Alpha virt. eigenvalues --   23.17862  23.17864  23.24930  23.24930  23.32481
 Alpha virt. eigenvalues --   23.32482  23.39740  23.39740  23.46109  23.46110
 Alpha virt. eigenvalues --   23.50782  23.50782  23.52568  23.62213  23.62351
 Alpha virt. eigenvalues --   23.62351  23.62911  23.62912  23.63870  23.63870
 Alpha virt. eigenvalues --   23.65048  23.65049  23.66265  23.66265  23.67336
 Alpha virt. eigenvalues --   23.67337  23.68079  23.68079  23.68345  23.75499
 Alpha virt. eigenvalues --   23.76346  23.76346  23.78110  23.78111  23.79760
 Alpha virt. eigenvalues --   23.79760  23.80898  23.80899  23.81558  23.81558
 Alpha virt. eigenvalues --   23.81924  23.81925  23.82142  23.82142  23.82226
 Alpha virt. eigenvalues --   23.89333  23.89441  23.89441  23.89771  23.89772
 Alpha virt. eigenvalues --   23.90337  23.90337  23.91098  23.91099  23.91927
 Alpha virt. eigenvalues --   23.91927  23.92665  23.92666  23.93185  23.93185
 Alpha virt. eigenvalues --   23.93379  23.96937  23.97137  23.97137  23.97588
 Alpha virt. eigenvalues --   23.97589  23.98064  23.98064  23.98448  23.98448
 Alpha virt. eigenvalues --   23.98720  23.98720  23.98899  23.98900  23.99007
 Alpha virt. eigenvalues --   23.99007  23.99044  24.03912  24.03936  24.03936
 Alpha virt. eigenvalues --   24.04013  24.04015  24.04164  24.04164  24.04408
 Alpha virt. eigenvalues --   24.04409  24.04756  24.04756  24.05177  24.05179
 Alpha virt. eigenvalues --   24.05565  24.05565  24.05730  24.08558  24.08617
 Alpha virt. eigenvalues --   24.08617  24.08758  24.08760  24.08922  24.08922
 Alpha virt. eigenvalues --   24.09064  24.09065  24.09176  24.09176  24.09258
 Alpha virt. eigenvalues --   24.09261  24.09315  24.09315  24.09335  24.14745
 Alpha virt. eigenvalues --   24.14747  24.14749  24.14749  24.14807  24.14807
 Alpha virt. eigenvalues --   24.14839  24.14839  24.14847  24.14996  24.14996
 Alpha virt. eigenvalues --   24.15183  24.15185  24.15345  24.15345  24.15411
          Condensed to atoms (all electrons):
 Mulliken charges:
               1
     1  C    0.064908
     2  C   -0.000007
     3  C   -0.226864
     4  C   -0.226857
     5  C    0.064930
     6  C   -0.000051
     7  C   -0.234654
     8  C   -0.234647
     9  C   -0.000013
    10  C    0.064900
    11  C   -0.226839
    12  C   -0.226894
    13  C   -0.000079
    14  C    0.064965
    15  C   -0.234628
    16  C   -0.234667
    17  C    0.064946
    18  C   -0.000050
    19  C   -0.226870
    20  C   -0.226860
    21  C    0.064961
    22  C   -0.000093
    23  C   -0.234620
    24  C   -0.234660
    25  C   -0.000064
    26  C    0.064954
    27  C   -0.226890
    28  C   -0.226846
    29  C   -0.000011
    30  C    0.064907
    31  C   -0.234665
    32  C   -0.234657
    33  C    0.064909
    34  C   -0.000007
    35  C   -0.226865
    36  C   -0.226857
    37  C    0.064930
    38  C   -0.000050
    39  C   -0.234655
    40  C   -0.234646
    41  C   -0.000015
    42  C    0.064902
    43  C   -0.226839
    44  C   -0.226894
    45  C   -0.000079
    46  C    0.064965
    47  C   -0.234628
    48  C   -0.234668
    49  C    0.064946
    50  C   -0.000048
    51  C   -0.226871
    52  C   -0.226859
    53  C    0.064962
    54  C   -0.000094
    55  C   -0.234620
    56  C   -0.234660
    57  C   -0.000064
    58  C    0.064955
    59  C   -0.226890
    60  C   -0.226847
    61  C   -0.000013
    62  C    0.064908
    63  C   -0.234666
    64  C   -0.234656
    65  C    0.064908
    66  C   -0.000007
    67  C   -0.226864
    68  C   -0.226857
    69  C    0.064930
    70  C   -0.000050
    71  C   -0.234654
    72  C   -0.234647
    73  C   -0.000014
    74  C    0.064901
    75  C   -0.226839
    76  C   -0.226894
    77  C   -0.000079
    78  C    0.064965
    79  C   -0.234628
    80  C   -0.234667
    81  C    0.064946
    82  C   -0.000049
    83  C   -0.226871
    84  C   -0.226860
    85  C    0.064961
    86  C   -0.000093
    87  C   -0.234620
    88  C   -0.234660
    89  C   -0.000064
    90  C    0.064955
    91  C   -0.226890
    92  C   -0.226847
    93  C   -0.000011
    94  C    0.064907
    95  C   -0.234665
    96  C   -0.234658
    97  C    0.064910
    98  C   -0.000008
    99  C   -0.226864
   100  C   -0.226857
   101  C    0.064930
   102  C   -0.000051
   103  C   -0.234655
   104  C   -0.234646
   105  C   -0.000014
   106  C    0.064901
   107  C   -0.226840
   108  C   -0.226894
   109  C   -0.000078
   110  C    0.064964
   111  C   -0.234628
   112  C   -0.234667
   113  C    0.064946
   114  C   -0.000049
   115  C   -0.226870
   116  C   -0.226860
   117  C    0.064961
   118  C   -0.000092
   119  C   -0.234620
   120  C   -0.234660
   121  C   -0.000063
   122  C    0.064954
   123  C   -0.226890
   124  C   -0.226846
   125  C   -0.000012
   126  C    0.064907
   127  C   -0.234666
   128  C   -0.234657
   129  H    0.189796
   130  H    0.189796
   131  H    0.206830
   132  H    0.206830
   133  H    0.189793
   134  H    0.189793
   135  H    0.206837
   136  H    0.206837
   137  H    0.189792
   138  H    0.189791
   139  H    0.206830
   140  H    0.206834
   141  H    0.189794
   142  H    0.189796
   143  H    0.206837
   144  H    0.206829
   145  H    0.189796
   146  H    0.189796
   147  H    0.206830
   148  H    0.206831
   149  H    0.189793
   150  H    0.189793
   151  H    0.206837
   152  H    0.206837
   153  H    0.189792
   154  H    0.189791
   155  H    0.206830
   156  H    0.206834
   157  H    0.189794
   158  H    0.189796
   159  H    0.206837
   160  H    0.206830
   161  H    0.189796
   162  H    0.189796
   163  H    0.206830
   164  H    0.206831
   165  H    0.189793
   166  H    0.189793
   167  H    0.206837
   168  H    0.206837
   169  H    0.189792
   170  H    0.189791
   171  H    0.206830
   172  H    0.206834
   173  H    0.189794
   174  H    0.189796
   175  H    0.206837
   176  H    0.206829
   177  H    0.189796
   178  H    0.189796
   179  H    0.206830
   180  H    0.206830
   181  H    0.189793
   182  H    0.189793
   183  H    0.206837
   184  H    0.206837
   185  H    0.189792
   186  H    0.189791
   187  H    0.206830
   188  H    0.206834
   189  H    0.189794
   190  H    0.189796
   191  H    0.206837
   192  H    0.206829
 Sum of Mulliken charges =  -0.00000
 Mulliken charges with hydrogens summed into heavy atoms:
               1
     1  C    0.064908
     2  C   -0.000007
     3  C   -0.037068
     4  C   -0.037061
     5  C    0.064930
     6  C   -0.000051
     7  C   -0.027824
     8  C   -0.027817
     9  C   -0.000013
    10  C    0.064900
    11  C   -0.037047
    12  C   -0.037101
    13  C   -0.000079
    14  C    0.064965
    15  C   -0.027791
    16  C   -0.027831
    17  C    0.064946
    18  C   -0.000050
    19  C   -0.037079
    20  C   -0.037068
    21  C    0.064961
    22  C   -0.000093
    23  C   -0.027790
    24  C   -0.027825
    25  C   -0.000064
    26  C    0.064954
    27  C   -0.037096
    28  C   -0.037051
    29  C   -0.000011
    30  C    0.064907
    31  C   -0.027828
    32  C   -0.027828
    33  C    0.064909
    34  C   -0.000007
    35  C   -0.037069
    36  C   -0.037060
    37  C    0.064930
    38  C   -0.000050
    39  C   -0.027825
    40  C   -0.027815
    41  C   -0.000015
    42  C    0.064902
    43  C   -0.037046
    44  C   -0.037101
    45  C   -0.000079
    46  C    0.064965
    47  C   -0.027791
    48  C   -0.027831
    49  C    0.064946
    50  C   -0.000048
    51  C   -0.037079
    52  C   -0.037068
    53  C    0.064962
    54  C   -0.000094
    55  C   -0.027790
    56  C   -0.027826
    57  C   -0.000064
    58  C    0.064955
    59  C   -0.037096
    60  C   -0.037051
    61  C   -0.000013
    62  C    0.064908
    63  C   -0.027829
    64  C   -0.027826
    65  C    0.064908
    66  C   -0.000007
    67  C   -0.037068
    68  C   -0.037061
    69  C    0.064930
    70  C   -0.000050
    71  C   -0.027825
    72  C   -0.027816
    73  C   -0.000014
    74  C    0.064901
    75  C   -0.037046
    76  C   -0.037101
    77  C   -0.000079
    78  C    0.064965
    79  C   -0.027791
    80  C   -0.027830
    81  C    0.064946
    82  C   -0.000049
    83  C   -0.037079
    84  C   -0.037069
    85  C    0.064961
    86  C   -0.000093
    87  C   -0.027790
    88  C   -0.027825
    89  C   -0.000064
    90  C    0.064955
    91  C   -0.037096
    92  C   -0.037051
    93  C   -0.000011
    94  C    0.064907
    95  C   -0.027828
    96  C   -0.027829
    97  C    0.064910
    98  C   -0.000008
    99  C   -0.037068
   100  C   -0.037061
   101  C    0.064930
   102  C   -0.000051
   103  C   -0.027825
   104  C   -0.027816
   105  C   -0.000014
   106  C    0.064901
   107  C   -0.037047
   108  C   -0.037100
   109  C   -0.000078
   110  C    0.064964
   111  C   -0.027791
   112  C   -0.027830
   113  C    0.064946
   114  C   -0.000049
   115  C   -0.037078
   116  C   -0.037069
   117  C    0.064961
   118  C   -0.000092
   119  C   -0.027790
   120  C   -0.027827
   121  C   -0.000063
   122  C    0.064954
   123  C   -0.037096
   124  C   -0.037050
   125  C   -0.000012
   126  C    0.064907
   127  C   -0.027829
   128  C   -0.027827
 Electronic spatial extent (au):  <R**2>=         372210.2932
 Charge=             -0.0000 electrons
 Dipole moment (field-independent basis, Debye):
    X=             -0.0000    Y=              0.0000    Z=             -0.0003  Tot=              0.0003
 Quadrupole moment (field-independent basis, Debye-Ang):
   XX=           -770.1823   YY=           -770.1823   ZZ=           -624.2399
   XY=              0.0000   XZ=             -0.0000   YZ=             -0.0000
 Traceless Quadrupole moment (field-independent basis, Debye-Ang):
   XX=            -48.6475   YY=            -48.6475   ZZ=             97.2949
   XY=              0.0000   XZ=             -0.0000   YZ=             -0.0000
 Octapole moment (field-independent basis, Debye-Ang**2):
  XXX=             -0.0007  YYY=              0.0020  ZZZ=             29.1978  XYY=             -0.0007
  XXY=             -0.0005  XXZ=             11.9731  XZZ=             -0.0003  YZZ=              0.0002
  YYZ=             11.9732  XYZ=              0.0003
 Hexadecapole moment (field-independent basis, Debye-Ang**3):
 XXXX=        -284143.2960 YYYY=        -284143.2753 ZZZZ=         -10606.0410 XXXY=             -0.1480
 XXXZ=             -0.0677 YYYX=              0.1732 YYYZ=             -0.0005 ZZZX=             -0.0458
 ZZZY=              0.0014 XXYY=         -94714.8434 XXZZ=         -40195.2114 YYZZ=         -40195.2086
 XXYZ=              0.0020 YYXZ=             -0.0200 ZZXY=              0.0037
 N-N= 1.979315576342D+04 E-N=-5.099478064480D+04  KE= 4.896153393227D+03
 1\1\GINC-CU24\SP\RB3LYP\6-311G(d)\C128H64\WANG\27-Apr-2025\0\\# B3LYP/
 6-311G* NOSYMM\\From 16_16-CNB_opt.out\\0,1\C,0,10.930678,-1.521235,-1
 .214361\C,0,11.007492,-0.829195,0.037693\C,0,11.044823,0.580886,-2.443
 4\C,0,11.032864,-0.775884,-2.443409\C,0,10.955685,1.327889,-1.21434\C,
 0,11.020224,0.634582,0.037701\C,0,10.956303,1.403797,1.203868\C,0,10.7
 0894,2.706766,-1.235066\C,0,10.486072,3.445793,-0.068921\C,0,10.680203
 ,2.777095,1.183142\C,0,10.489151,3.504752,2.412192\C,0,9.980746,4.7627
 18,2.412197\C,0,9.937455,4.802925,-0.068909\C,0,9.612493,5.418732,1.18
 3143\C,0,8.856971,6.598295,1.203914\C,0,9.583978,5.48916,-1.235041\C,0
 ,8.80343,6.652302,-1.214272\C,0,8.368351,7.195912,0.037794\C,0,7.39786
 4,8.219548,-2.443327\C,0,8.348605,7.251537,-2.443328\C,0,6.806833,8.68
 4973,-1.214266\C,0,7.3425,8.240143,0.037792\C,0,6.753525,8.739117,1.20
 3924\C,0,5.65777,9.486112,-1.235034\C,0,4.977818,9.851572,-0.068919\C,
 0,5.587646,9.515581,1.183154\C,0,4.93827,9.895454,2.412191\C,0,3.68961
 ,10.426306,2.41217\C,0,3.630608,10.424117,-0.068947\C,0,2.96546,10.630
 163,1.183099\C,0,1.597233,10.930408,1.203834\C,0,2.895572,10.659804,-1
 .235102\C,0,1.521235,10.930675,-1.214366\C,0,0.829195,11.00749,0.03768
 8\C,0,-0.580885,11.044819,-2.443406\C,0,0.775885,11.03286,-2.443414\C,
 0,-1.327889,10.955683,-1.214346\C,0,-0.634582,11.020223,0.037695\C,0,-
 1.403798,10.956303,1.203862\C,0,-2.706766,10.708938,-1.235073\C,0,-3.4
 45793,10.486071,-0.068927\C,0,-2.777096,10.680203,1.183136\C,0,-3.5047
 53,10.489152,2.412186\C,0,-4.762719,9.980747,2.412191\C,0,-4.802926,9.
 937455,-0.068915\C,0,-5.418733,9.612493,1.183137\C,0,-6.598296,8.85697
 2,1.203907\C,0,-5.48916,9.583978,-1.235047\C,0,-6.652303,8.80343,-1.21
 4278\C,0,-7.195913,8.368352,0.037788\C,0,-8.219549,7.397864,-2.443333\
 C,0,-7.251538,8.348605,-2.443334\C,0,-8.684974,6.806833,-1.214272\C,0,
 -8.240143,7.342501,0.037786\C,0,-8.739118,6.753525,1.203918\C,0,-9.486
 113,5.65777,-1.235039\C,0,-9.851573,4.977818,-0.068925\C,0,-9.515582,5
 .587647,1.183148\C,0,-9.895455,4.938271,2.412185\C,0,-10.426307,3.6896
 11,2.412165\C,0,-10.424118,3.630608,-0.068952\C,0,-10.630165,2.96546,1
 .183094\C,0,-10.93041,1.597233,1.203829\C,0,-10.659804,2.895572,-1.235
 108\C,0,-10.930675,1.521235,-1.21437\C,0,-11.007491,0.829195,0.037683\
 C,0,-11.044819,-0.580886,-2.44341\C,0,-11.03286,0.775884,-2.443418\C,0
 ,-10.955683,-1.327889,-1.21435\C,0,-11.020223,-0.634582,0.037692\C,0,-
 10.956303,-1.403797,1.203858\C,0,-10.708938,-2.706766,-1.235076\C,0,-1
 0.486071,-3.445793,-0.068929\C,0,-10.680203,-2.777095,1.183133\C,0,-10
 .489153,-3.504752,2.412184\C,0,-9.980747,-4.762718,2.412189\C,0,-9.937
 454,-4.802926,-0.068917\C,0,-9.612493,-5.418732,1.183135\C,0,-8.856971
 ,-6.598295,1.203907\C,0,-9.583977,-5.48916,-1.235049\C,0,-8.803429,-6.
 652303,-1.214279\C,0,-8.368351,-7.195913,0.037788\C,0,-7.397861,-8.219
 549,-2.443333\C,0,-8.348603,-7.251538,-2.443334\C,0,-6.806832,-8.68497
 4,-1.214271\C,0,-7.3425,-8.240143,0.037787\C,0,-6.753525,-8.739117,1.2
 03918\C,0,-5.657768,-9.486113,-1.235038\C,0,-4.977817,-9.851573,-0.068
 923\C,0,-5.587647,-9.515581,1.18315\C,0,-4.938272,-9.895454,2.412187\C
 ,0,-3.689611,-10.426306,2.412168\C,0,-3.630608,-10.424118,-0.068949\C,
 0,-2.96546,-10.630164,1.183097\C,0,-1.597233,-10.930409,1.203833\C,0,-
 2.89557,-10.659805,-1.235104\C,0,-1.521234,-10.930676,-1.214367\C,0,-0
 .829195,-11.007491,0.037687\C,0,0.580888,-11.04482,-2.443405\C,0,-0.77
 5882,-11.032861,-2.443414\C,0,1.327891,-10.955683,-1.214345\C,0,0.6345
 82,-11.020223,0.037697\C,0,1.403797,-10.956303,1.203863\C,0,2.706767,-
 10.708939,-1.23507\C,0,3.445794,-10.486071,-0.068924\C,0,2.777095,-10.
 680203,1.183138\C,0,3.504752,-10.489152,2.412189\C,0,4.762718,-9.98074
 7,2.412195\C,0,4.802927,-9.937455,-0.068911\C,0,5.418733,-9.612493,1.1
 83141\C,0,6.598296,-8.856972,1.203913\C,0,5.489161,-9.583978,-1.235042
 \C,0,6.652304,-8.803429,-1.214272\C,0,7.195914,-8.368351,0.037794\C,0,
 8.219551,-7.397863,-2.443327\C,0,7.25154,-8.348604,-2.443328\C,0,8.684
 975,-6.806833,-1.214264\C,0,8.240144,-7.342501,0.037793\C,0,8.739117,-
 6.753525,1.203925\C,0,9.486114,-5.657769,-1.235031\C,0,9.851574,-4.977
 818,-0.068917\C,0,9.515581,-5.587647,1.183156\C,0,9.895454,-4.938271,2
 .412193\C,0,10.426306,-3.689611,2.412174\C,0,10.424119,-3.630608,-0.06
 8943\C,0,10.630164,-2.96546,1.183103\C,0,10.930409,-1.597233,1.203838\
 C,0,10.659807,-2.895572,-1.235098\H,0,11.070583,1.13302,-3.379768\H,0,
 11.048861,-1.328371,-3.379787\H,0,11.039579,0.927212,2.175902\H,0,10.6
 12015,3.180717,-2.207119\H,0,10.715434,3.000475,3.348571\H,0,9.793205,
 5.282649,3.348574\H,0,8.586177,6.999148,2.175973\H,0,9.843439,5.080871
 ,-2.207096\H,0,7.025733,8.628243,-3.379698\H,0,8.750518,6.872098,-3.37
 9701\H,0,7.149235,8.460879,2.175987\H,0,5.254214,9.752861,-2.207092\H,
 0,5.454728,9.698594,3.348579\H,0,3.18947,10.661644,3.348535\H,0,1.1222
 6,11.022464,2.175866\H,0,3.367728,10.554515,-2.207158\H,0,-1.133019,11
 .070578,-3.379774\H,0,1.328372,11.048858,-3.379792\H,0,-0.927213,11.03
 958,2.175897\H,0,-3.180716,10.612012,-2.207125\H,0,-3.000476,10.715436
 ,3.348565\H,0,-5.282651,9.793206,3.348568\H,0,-6.999149,8.586178,2.175
 967\H,0,-5.080872,9.843438,-2.207102\H,0,-8.628244,7.025733,-3.379704\
 H,0,-6.872099,8.750518,-3.379708\H,0,-8.46088,7.149236,2.175981\H,0,-9
 .752862,5.254214,-2.207098\H,0,-9.698595,5.454729,3.348573\H,0,-10.661
 646,3.189472,3.34853\H,0,-11.022466,1.122261,2.175862\H,0,-10.554514,3
 .367728,-2.207163\H,0,-11.070578,-1.13302,-3.379778\H,0,-11.048856,1.3
 28371,-3.379797\H,0,-11.03958,-0.927212,2.175893\H,0,-10.612012,-3.180
 717,-2.207128\H,0,-10.715436,-3.000475,3.348562\H,0,-9.793207,-5.28264
 9,3.348566\H,0,-8.586179,-6.999148,2.175966\H,0,-9.843437,-5.080872,-2
 .207104\H,0,-7.025731,-8.628244,-3.379704\H,0,-8.750516,-6.872099,-3.3
 79708\H,0,-7.149236,-8.460879,2.175981\H,0,-5.254212,-9.752862,-2.2070
 96\H,0,-5.45473,-9.698594,3.348575\H,0,-3.189472,-10.661644,3.348533\H
 ,0,-1.122261,-11.022465,2.175866\H,0,-3.367726,-10.554515,-2.20716\H,0
 ,1.133022,-11.070579,-3.379773\H,0,-1.328369,-11.048858,-3.379793\H,0,
 0.927212,-11.039579,2.175898\H,0,3.180719,-10.612013,-2.207123\H,0,3.0
 00474,-10.715435,3.348567\H,0,5.282648,-9.793206,3.348572\H,0,6.999148
 ,-8.586178,2.175973\H,0,5.080873,-9.843437,-2.207098\H,0,8.628247,-7.0
 25732,-3.379697\H,0,6.872101,-8.750517,-3.379702\H,0,8.460879,-7.14923
 6,2.175988\H,0,9.752864,-5.254213,-2.20709\H,0,9.698593,-5.45473,3.348
 581\H,0,10.661644,-3.189472,3.348539\H,0,11.022465,-1.122261,2.175871\
 H,0,10.554518,-3.367728,-2.207154\\Version=ES64L-G16RevB.01\HF=-4917.4
 674636\RMSD=8.218e-09\Dipole=-0.0000015,0.0000025,-0.0001335\Quadrupol
 e=-36.1681951,-36.1681998,72.3363949,0.0000242,-0.0000311,-0.000008\PG
 =C01 [X(C128H64)]\\@


 CONFIDENCE IS WHAT YOU FEEL BEFORE YOU FULLY
 COMPREHEND THE SITUATION.
 Job cpu time:       0 days  2 hours 12 minutes 59.2 seconds.
 Elapsed time:       0 days  0 hours  7 minutes 26.2 seconds.
 File lengths (MBytes):  RWF=   3340 Int=      0 D2E=      0 Chk=    358 Scr=      1
 Normal termination of Gaussian 16 at Sun Apr 27 19:24:48 2025.
