 Entering Gaussian System, Link 0=g16
 Initial command:
 /opt/software/g16/l1.exe "/tmp/2_2-CNB-12334.tmp/Gau-22299.inp" -scrdir="/tmp/2_2-CNB-12334.tmp/"
 Entering Link 1 = /opt/software/g16/l1.exe PID=     22300.
  
 Copyright (c) 1988-2017, Gaussian, Inc.  All Rights Reserved.
  
 This is part of the Gaussian(R) 16 program.  It is based on
 the Gaussian(R) 09 system (copyright 2009, Gaussian, Inc.),
 the Gaussian(R) 03 system (copyright 2003, Gaussian, Inc.),
 the Gaussian(R) 98 system (copyright 1998, Gaussian, Inc.),
 the Gaussian(R) 94 system (copyright 1995, Gaussian, Inc.),
 the Gaussian 92(TM) system (copyright 1992, Gaussian, Inc.),
 the Gaussian 90(TM) system (copyright 1990, Gaussian, Inc.),
 the Gaussian 88(TM) system (copyright 1988, Gaussian, Inc.),
 the Gaussian 86(TM) system (copyright 1986, Carnegie Mellon
 University), and the Gaussian 82(TM) system (copyright 1983,
 Carnegie Mellon University). Gaussian is a federally registered
 trademark of Gaussian, Inc.
  
 This software contains proprietary and confidential information,
 including trade secrets, belonging to Gaussian, Inc.
  
 This software is provided under written license and may be
 used, copied, transmitted, or stored only in accord with that
 written license.
  
 The following legend is applicable only to US Government
 contracts under FAR:
  
                    RESTRICTED RIGHTS LEGEND
  
 Use, reproduction and disclosure by the US Government is
 subject to restrictions as set forth in subparagraphs (a)
 and (c) of the Commercial Computer Software - Restricted
 Rights clause in FAR 52.227-19.
  
 Gaussian, Inc.
 340 Quinnipiac St., Bldg. 40, Wallingford CT 06492
  
  
 ---------------------------------------------------------------
 Warning -- This program may not be used in any manner that
 competes with the business of Gaussian, Inc. or will provide
 assistance to any competitor of Gaussian, Inc.  The licensee
 of this program is prohibited from giving any competitor of
 Gaussian, Inc. access to this program.  By using this program,
 the user acknowledges that Gaussian, Inc. is engaged in the
 business of creating and licensing software in the field of
 computational chemistry and represents and warrants to the
 licensee that it is not a competitor of Gaussian, Inc. and that
 it will not use this program in any manner prohibited above.
 ---------------------------------------------------------------
  

 Cite this work as:
 Gaussian 16, Revision B.01,
 M. J. Frisch, G. W. Trucks, H. B. Schlegel, G. E. Scuseria, 
 M. A. Robb, J. R. Cheeseman, G. Scalmani, V. Barone, 
 G. A. Petersson, H. Nakatsuji, X. Li, M. Caricato, A. V. Marenich, 
 J. Bloino, B. G. Janesko, R. Gomperts, B. Mennucci, H. P. Hratchian, 
 J. V. Ortiz, A. F. Izmaylov, J. L. Sonnenberg, D. Williams-Young, 
 F. Ding, F. Lipparini, F. Egidi, J. Goings, B. Peng, A. Petrone, 
 T. Henderson, D. Ranasinghe, V. G. Zakrzewski, J. Gao, N. Rega, 
 G. Zheng, W. Liang, M. Hada, M. Ehara, K. Toyota, R. Fukuda, 
 J. Hasegawa, M. Ishida, T. Nakajima, Y. Honda, O. Kitao, H. Nakai, 
 T. Vreven, K. Throssell, J. A. Montgomery, Jr., J. E. Peralta, 
 F. Ogliaro, M. J. Bearpark, J. J. Heyd, E. N. Brothers, K. N. Kudin, 
 V. N. Staroverov, T. A. Keith, R. Kobayashi, J. Normand, 
 K. Raghavachari, A. P. Rendell, J. C. Burant, S. S. Iyengar, 
 J. Tomasi, M. Cossi, J. M. Millam, M. Klene, C. Adamo, R. Cammi, 
 J. W. Ochterski, R. L. Martin, K. Morokuma, O. Farkas, 
 J. B. Foresman, and D. J. Fox, Gaussian, Inc., Wallingford CT, 2016.
 
 ******************************************
 Gaussian 16:  ES64L-G16RevB.01 20-Dec-2017
                18-Jun-2025 
 ******************************************
 %nproc=28
 Will use up to   28 processors via shared memory.
 ----------------------
 # B3LYP/6-311G* NOSYMM
 ----------------------
 1/38=1,172=1/1;
 2/12=2,15=1,17=6,18=5,40=1/2;
 3/5=4,6=6,7=1,11=2,25=1,30=1,74=-5/1,2,3;
 4//1;
 5/5=2,38=5/2;
 6/7=2,8=2,9=2,10=2,28=1/1;
 99/5=1,9=1/99;
 --------------------
 From 2_2-CNB_opt.out
 --------------------
 Symbolic Z-matrix:
 Charge =  0 Multiplicity = 1
 6                     1.37758  -1.24653   0.11394 
 6                     0.49849  -0.49667   1.07601 
 6                     2.97068   0.48785  -0.0065 
 6                     2.82351  -0.8476    0.14674 
 6                     1.64396   1.17059  -0.16339 
 6                     0.64823   0.86207   0.92014 
 6                    -0.63799   1.65193   0.92597 
 6                     0.98454   1.21138  -1.35385 
 6                    -0.44084   0.73836  -1.20309 
 6                    -1.31994   1.48823  -0.24102 
 6                    -2.76587   1.08929  -0.27382 
 6                    -2.91303  -0.24616  -0.12058 
 6                    -0.59058  -0.62037  -1.04722 
 6                    -1.58632  -0.92889   0.03631 
 6                    -0.9269   -0.96969   1.22677 
 6                     0.69563  -1.41023  -1.05305 
 1                     3.92898   0.99759   0.04844 
 1                     3.65088  -1.52589   0.33801 
 1                    -1.10718   1.99872   1.84301 
 1                     1.49453   1.23481  -2.3134 
 1                    -3.59323   1.76758  -0.46509 
 1                    -3.87133  -0.75589  -0.17552 
 1                    -1.43688  -0.99311   2.18632 
 1                     1.16482  -1.75703  -1.97009 
 
                          Input orientation:                          
 ---------------------------------------------------------------------
 Center     Atomic      Atomic             Coordinates (Angstroms)
 Number     Number       Type             X           Y           Z
 ---------------------------------------------------------------------
      1          6           0        1.377582   -1.246533    0.113941
      2          6           0        0.498485   -0.496668    1.076006
      3          6           0        2.970676    0.487853   -0.006498
      4          6           0        2.823513   -0.847598    0.146744
      5          6           0        1.643962    1.170588   -0.163388
      6          6           0        0.648228    0.862068    0.920136
      7          6           0       -0.637986    1.651928    0.925970
      8          6           0        0.984541    1.211381   -1.353853
      9          6           0       -0.440839    0.738364   -1.203086
     10          6           0       -1.319937    1.488229   -0.241022
     11          6           0       -2.765867    1.089293   -0.273824
     12          6           0       -2.913030   -0.246157   -0.120583
     13          6           0       -0.590582   -0.620373   -1.047217
     14          6           0       -1.586316   -0.928893    0.036307
     15          6           0       -0.926896   -0.969686    1.226773
     16          6           0        0.695632   -1.410233   -1.053050
     17          1           0        3.928979    0.997587    0.048443
     18          1           0        3.650881   -1.525885    0.338005
     19          1           0       -1.107179    1.998720    1.843006
     20          1           0        1.494526    1.234805   -2.313403
     21          1           0       -3.593235    1.767581   -0.465086
     22          1           0       -3.871334   -0.755892   -0.175524
     23          1           0       -1.436881   -0.993110    2.186322
     24          1           0        1.164825   -1.757025   -1.970086
 ---------------------------------------------------------------------
                    Distance matrix (angstroms):
                    1          2          3          4          5
     1  C    0.000000
     2  C    1.503555   0.000000
     3  C    2.358082   2.872773   0.000000
     4  C    1.500314   2.528327   1.352246   0.000000
     5  C    2.447518   2.372332   1.500304   2.358092   0.000000
     6  C    2.372363   1.375820   2.528330   2.872796   1.503561
     7  C    3.622566   2.435270   3.904742   4.340138   2.574039
     8  C    2.889678   3.009634   2.506709   3.142134   1.361509
     9  C    2.996837   2.757153   3.623950   3.872120   2.369427
    10  C    3.857659   2.996838   4.411929   4.772277   2.981882
    11  C    4.772276   3.872119   5.774177   5.930396   4.411961
    12  C    4.411928   3.623950   5.930412   5.774177   4.772334
    13  C    2.369395   2.389445   3.872185   3.623978   2.996979
    14  C    2.981881   2.369428   4.772335   4.411961   3.857771
    15  C    2.574035   1.509367   4.340097   3.904732   3.622517
    16  C    1.361514   2.325155   3.142265   2.506779   2.889890
    17  H    3.398528   3.880332   1.086827   2.153236   2.301327
    18  H    2.301332   3.397283   2.153254   1.086826   3.398542
    19  H    4.437947   3.064867   4.725705   5.140931   3.504311
    20  H    3.473142   3.934233   2.838797   3.486392   2.156158
    21  H    5.842018   4.923816   6.703203   6.956159   5.279740
    22  H    5.279738   4.552894   6.956189   6.703226   5.842085
    23  H    3.504310   2.285804   5.140843   4.725676   4.437828
    24  H    2.156162   3.363211   3.486582   2.838886   3.473420
                    6          7          8          9         10
     6  C    0.000000
     7  C    1.509390   0.000000
     8  C    2.325113   2.832714   0.000000
     9  C    2.389444   2.325155   1.509365   0.000000
    10  C    2.369396   1.361516   2.574035   1.503555   0.000000
    11  C    3.623978   2.506779   3.904732   2.528326   1.500313
    12  C    3.872185   3.142264   4.340096   2.872773   2.358081
    13  C    2.757310   3.009828   2.435233   1.375821   2.372364
    14  C    2.996979   2.889890   3.622516   2.372332   2.447519
    15  C    2.435234   2.654583   3.882045   3.009635   2.889680
    16  C    3.009828   3.882253   2.654583   2.435271   3.622567
    17  H    3.397284   4.696316   3.268311   4.552893   5.279739
    18  H    3.880351   5.370156   4.179040   4.923815   5.842019
    19  H    2.285852   1.086905   3.900654   3.363210   2.156163
    20  H    3.363172   3.900658   1.086908   2.285803   3.504310
    21  H    4.552889   3.268319   4.696307   3.397283   2.301331
    22  H    4.923891   4.179166   5.370116   3.880333   3.398528
    23  H    3.064734   3.036930   4.822438   3.934233   3.473142
    24  H    3.934451   4.822679   3.037051   3.064867   4.437948
                   11         12         13         14         15
    11  C    0.000000
    12  C    1.352245   0.000000
    13  C    2.872796   2.528330   0.000000
    14  C    2.358092   1.500304   1.503561   0.000000
    15  C    3.142133   2.506709   2.325114   1.361509   0.000000
    16  C    4.340138   3.904742   1.509390   2.574038   2.832715
    17  H    6.703225   6.956188   4.923890   5.842085   5.370116
    18  H    6.956159   6.703203   4.552889   5.279740   4.696308
    19  H    2.838886   3.486582   3.934452   3.473421   3.037051
    20  H    4.725675   5.140842   3.064733   4.437828   4.822438
    21  H    1.086827   2.153254   3.880351   3.398542   4.179041
    22  H    2.153237   1.086828   3.397285   2.301328   3.268311
    23  H    3.486391   2.838796   3.363173   2.156158   1.086907
    24  H    5.140931   4.725705   2.285852   3.504311   3.900655
                   16         17         18         19         20
    16  C    0.000000
    17  H    4.179165   0.000000
    18  H    3.268319   2.555209   0.000000
    19  H    4.822679   5.439266   6.109583   0.000000
    20  H    3.036931   3.400169   4.393318   4.962678   0.000000
    21  H    5.370157   7.578938   7.998068   3.400175   5.439250
    22  H    4.696317   7.998108   7.578939   4.393507   6.109489
    23  H    3.900658   6.109489   5.439251   3.029458   5.814145
    24  H    1.086905   4.393506   3.400174   5.814404   3.029458
                   21         22         23         24
    21  H    0.000000
    22  H    2.555211   0.000000
    23  H    4.393318   3.400169   0.000000
    24  H    6.109583   5.439266   4.962677   0.000000
 Symmetry turned off by external request.
 Stoichiometry    C16H8
 Framework group  CI[X(C16H8)]
 Deg. of freedom    33
 Full point group                 CI      NOp   2
 Rotational constants (GHZ):           1.4287170           0.6699902           0.6056471
 Standard basis: 6-311G(d) (5D, 7F)
   312 basis functions,   552 primitive gaussians,   328 cartesian basis functions
    52 alpha electrons       52 beta electrons
       nuclear repulsion energy      1023.7174112127 Hartrees.
 NAtoms=   24 NActive=   24 NUniq=   24 SFac= 1.00D+00 NAtFMM=   60 NAOKFM=F Big=F
 Integral buffers will be    131072 words long.
 Raffenetti 2 integral format.
 Two-electron integral symmetry is turned off.
 One-electron integrals computed using PRISM.
 NBasis=   312 RedAO= T EigKep=  1.94D-04  NBF=   312
 NBsUse=   312 1.00D-06 EigRej= -1.00D+00 NBFU=   312
 ExpMin= 1.03D-01 ExpMax= 4.56D+03 ExpMxC= 6.82D+02 IAcc=3 IRadAn=         5 AccDes= 0.00D+00
 Harris functional with IExCor=  402 and IRadAn=       5 diagonalized for initial guess.
 HarFok:  IExCor=  402 AccDes= 0.00D+00 IRadAn=         5 IDoV= 1 UseB2=F ITyADJ=14
 ICtDFT=  3500011 ScaDFX=  1.000000  1.000000  1.000000  1.000000
 FoFCou: FMM=F IPFlag=           0 FMFlag=      100000 FMFlg1=           0
         NFxFlg=           0 DoJE=T BraDBF=F KetDBF=T FulRan=T
         wScrn=  0.000000 ICntrl=       500 IOpCl=  0 I1Cent=   200000004 NGrid=           0
         NMat0=    1 NMatS0=      1 NMatT0=    0 NMatD0=    1 NMtDS0=    0 NMtDT0=    0
 Symmetry not used in FoFCou.
 Requested convergence on RMS density matrix=1.00D-08 within 128 cycles.
 Requested convergence on MAX density matrix=1.00D-06.
 Requested convergence on             energy=1.00D-06.
 No special actions if energy rises.
 Integral accuracy reduced to 1.0D-05 until final iterations.
 Initial convergence to 1.0D-05 achieved.  Increase integral accuracy.
 SCF Done:  E(RB3LYP) =  -614.256204809     A.U. after   14 cycles
            NFock= 14  Conv=0.67D-08     -V/T= 2.0045

 **********************************************************************

            Population analysis using the SCF Density.

 **********************************************************************

 Alpha  occ. eigenvalues --  -10.20060 -10.20055 -10.19996 -10.19994 -10.19640
 Alpha  occ. eigenvalues --  -10.19639 -10.19636 -10.19636 -10.19142 -10.19142
 Alpha  occ. eigenvalues --  -10.19083 -10.19083 -10.19080 -10.19080 -10.19070
 Alpha  occ. eigenvalues --  -10.19070  -0.93671  -0.86184  -0.82906  -0.79411
 Alpha  occ. eigenvalues --   -0.79351  -0.75889  -0.72218  -0.66940  -0.66179
 Alpha  occ. eigenvalues --   -0.62901  -0.60144  -0.56284  -0.56271  -0.52708
 Alpha  occ. eigenvalues --   -0.52554  -0.49653  -0.49363  -0.47677  -0.47347
 Alpha  occ. eigenvalues --   -0.44632  -0.44057  -0.43851  -0.42465  -0.39715
 Alpha  occ. eigenvalues --   -0.39605  -0.38891  -0.38096  -0.32284  -0.31864
 Alpha  occ. eigenvalues --   -0.31731  -0.27496  -0.25835  -0.25776  -0.23541
 Alpha  occ. eigenvalues --   -0.22988  -0.21386
 Alpha virt. eigenvalues --   -0.05436  -0.05338  -0.03941  -0.01769  -0.01671
 Alpha virt. eigenvalues --   -0.01295   0.01129   0.02192   0.06284   0.06514
 Alpha virt. eigenvalues --    0.07642   0.07918   0.09919   0.10399   0.11690
 Alpha virt. eigenvalues --    0.12092   0.15650   0.16225   0.20220   0.20367
 Alpha virt. eigenvalues --    0.22245   0.25209   0.26486   0.28519   0.29053
 Alpha virt. eigenvalues --    0.29586   0.30834   0.31102   0.31952   0.32322
 Alpha virt. eigenvalues --    0.33549   0.33940   0.34185   0.36653   0.36769
 Alpha virt. eigenvalues --    0.36849   0.38359   0.39317   0.40664   0.40833
 Alpha virt. eigenvalues --    0.41007   0.41236   0.42262   0.43065   0.44167
 Alpha virt. eigenvalues --    0.44515   0.44884   0.45081   0.45564   0.46682
 Alpha virt. eigenvalues --    0.47798   0.47807   0.48825   0.49026   0.49288
 Alpha virt. eigenvalues --    0.50076   0.50777   0.50957   0.52096   0.52600
 Alpha virt. eigenvalues --    0.54709   0.56095   0.56717   0.57773   0.58584
 Alpha virt. eigenvalues --    0.60240   0.61326   0.61460   0.61649   0.62230
 Alpha virt. eigenvalues --    0.62887   0.63297   0.63372   0.65701   0.65862
 Alpha virt. eigenvalues --    0.65971   0.68262   0.69401   0.70203   0.70789
 Alpha virt. eigenvalues --    0.71563   0.72302   0.73597   0.75976   0.76048
 Alpha virt. eigenvalues --    0.76239   0.76792   0.78696   0.78955   0.82034
 Alpha virt. eigenvalues --    0.84178   0.84210   0.86424   0.87258   0.88252
 Alpha virt. eigenvalues --    0.88393   0.90946   0.91332   0.97744   0.97845
 Alpha virt. eigenvalues --    1.00925   1.10872   1.10998   1.12376   1.14590
 Alpha virt. eigenvalues --    1.16471   1.18301   1.20528   1.21202   1.23191
 Alpha virt. eigenvalues --    1.24520   1.26375   1.28415   1.30155   1.30945
 Alpha virt. eigenvalues --    1.35057   1.35101   1.38600   1.40179   1.41494
 Alpha virt. eigenvalues --    1.43100   1.44276   1.46206   1.48319   1.48759
 Alpha virt. eigenvalues --    1.51231   1.51920   1.52051   1.52816   1.52999
 Alpha virt. eigenvalues --    1.55293   1.61031   1.62429   1.62539   1.62664
 Alpha virt. eigenvalues --    1.64191   1.64887   1.65500   1.68201   1.68432
 Alpha virt. eigenvalues --    1.72885   1.73338   1.73741   1.74616   1.74804
 Alpha virt. eigenvalues --    1.75208   1.76405   1.78435   1.78966   1.85958
 Alpha virt. eigenvalues --    1.86353   1.87297   1.87349   1.87644   1.94903
 Alpha virt. eigenvalues --    1.95552   1.96733   1.98836   2.00309   2.01031
 Alpha virt. eigenvalues --    2.02571   2.04427   2.04726   2.05001   2.07712
 Alpha virt. eigenvalues --    2.08610   2.10212   2.12259   2.14341   2.15660
 Alpha virt. eigenvalues --    2.16357   2.17800   2.20351   2.22291   2.25849
 Alpha virt. eigenvalues --    2.26219   2.28364   2.29870   2.31394   2.31586
 Alpha virt. eigenvalues --    2.33187   2.33993   2.38872   2.41009   2.42446
 Alpha virt. eigenvalues --    2.45091   2.46614   2.49148   2.54938   2.57858
 Alpha virt. eigenvalues --    2.64166   2.66920   2.68933   2.72539   2.73032
 Alpha virt. eigenvalues --    2.73412   2.74635   2.76264   2.81901   2.86539
 Alpha virt. eigenvalues --    2.87190   2.88082   2.90009   2.91913   2.92420
 Alpha virt. eigenvalues --    2.93845   2.95071   2.96187   2.96893   3.00708
 Alpha virt. eigenvalues --    3.02927   3.05942   3.07418   3.11518   3.12454
 Alpha virt. eigenvalues --    3.14144   3.21626   3.22186   3.22577   3.23115
 Alpha virt. eigenvalues --    3.26164   3.27068   3.28645   3.35121   3.47652
 Alpha virt. eigenvalues --    3.52127   3.53672   3.54888   3.60758   3.64865
 Alpha virt. eigenvalues --    3.83401   3.84076   3.88676   3.89089   3.97803
 Alpha virt. eigenvalues --    4.02439   4.07082   4.12743   4.22099   4.25294
 Alpha virt. eigenvalues --    4.26702   4.34013   4.43572   4.67297  23.20757
 Alpha virt. eigenvalues --   23.40323  23.55285  23.60034  23.72639  23.74001
 Alpha virt. eigenvalues --   23.83574  23.86236  24.01067  24.06960  24.07754
 Alpha virt. eigenvalues --   24.08009  24.10107  24.17430  24.27197  24.38003
          Condensed to atoms (all electrons):
               1          2          3          4          5          6
     1  C    5.060530   0.399177  -0.081741   0.383878   0.017230  -0.099783
     2  C    0.399177   5.254368  -0.003671  -0.065507  -0.099770   0.521973
     3  C   -0.081741  -0.003671   5.093432   0.601312   0.383869  -0.065508
     4  C    0.383878  -0.065507   0.601312   5.093443  -0.081735  -0.003664
     5  C    0.017230  -0.099770   0.383869  -0.081735   5.060588   0.399163
     6  C   -0.099783   0.521973  -0.065508  -0.003664   0.399163   5.254367
     7  C    0.012368  -0.062659   0.003778   0.000042  -0.065345   0.360389
     8  C   -0.009187  -0.054909  -0.064875  -0.023550   0.586117  -0.092549
     9  C   -0.043386  -0.001507   0.008451   0.005205  -0.090723   0.006490
    10  C    0.002838  -0.043386  -0.000466  -0.000176   0.006218  -0.090706
    11  C   -0.000176   0.005205   0.000023   0.000010  -0.000466   0.008449
    12  C   -0.000466   0.008451   0.000010   0.000023  -0.000176   0.005206
    13  C   -0.090706   0.006490   0.005206   0.008449  -0.043387  -0.001506
    14  C    0.006218  -0.090723  -0.000176  -0.000466   0.002843  -0.043387
    15  C   -0.065341   0.360382   0.000042   0.003778   0.012368  -0.062659
    16  C    0.586130  -0.092540  -0.023536  -0.064875  -0.009199  -0.054879
    17  H    0.005765  -0.000543   0.387329  -0.041538  -0.036437   0.002908
    18  H   -0.036437   0.002909  -0.041534   0.387329   0.005765  -0.000543
    19  H   -0.000436   0.002339  -0.000243   0.000039   0.002948  -0.042152
    20  H   -0.001836   0.000748  -0.003227   0.002017  -0.043349   0.008893
    21  H    0.000012  -0.000188  -0.000001  -0.000000   0.000060  -0.000485
    22  H    0.000060  -0.000485  -0.000000  -0.000001   0.000012  -0.000188
    23  H    0.002948  -0.042155   0.000039  -0.000243  -0.000436   0.002337
    24  H   -0.043355   0.008893   0.002016  -0.003226  -0.001835   0.000746
               7          8          9         10         11         12
     1  C    0.012368  -0.009187  -0.043386   0.002838  -0.000176  -0.000466
     2  C   -0.062659  -0.054909  -0.001507  -0.043386   0.005205   0.008451
     3  C    0.003778  -0.064875   0.008451  -0.000466   0.000023   0.000010
     4  C    0.000042  -0.023550   0.005205  -0.000176   0.000010   0.000023
     5  C   -0.065345   0.586117  -0.090723   0.006218  -0.000466  -0.000176
     6  C    0.360389  -0.092549   0.006490  -0.090706   0.008449   0.005206
     7  C    5.212651   0.008386  -0.092541   0.586130  -0.064875  -0.023536
     8  C    0.008386   5.212690   0.360382  -0.065341   0.003778   0.000042
     9  C   -0.092541   0.360382   5.254369   0.399177  -0.065507  -0.003671
    10  C    0.586130  -0.065341   0.399177   5.060530   0.383878  -0.081740
    11  C   -0.064875   0.003778  -0.065507   0.383878   5.093442   0.601312
    12  C   -0.023536   0.000042  -0.003671  -0.081740   0.601312   5.093432
    13  C   -0.054879  -0.062659   0.521973  -0.099783  -0.003664  -0.065508
    14  C   -0.009199   0.012368  -0.099770   0.017230  -0.081735   0.383869
    15  C   -0.010074   0.006491  -0.054909  -0.009187  -0.023550  -0.064875
    16  C    0.006488  -0.010074  -0.062659   0.012368   0.000042   0.003778
    17  H   -0.000212   0.002487  -0.000485   0.000060  -0.000001  -0.000000
    18  H    0.000062   0.000815  -0.000188   0.000012  -0.000000  -0.000001
    19  H    0.391559  -0.000615   0.008893  -0.043355  -0.003226   0.002016
    20  H   -0.000615   0.391549  -0.042155   0.002948  -0.000243   0.000039
    21  H    0.002486  -0.000212   0.002909  -0.036437   0.387329  -0.041534
    22  H    0.000815   0.000062  -0.000543   0.005765  -0.041538   0.387329
    23  H   -0.003010  -0.000107   0.000748  -0.001836   0.002017  -0.003227
    24  H   -0.000107  -0.003011   0.002339  -0.000436   0.000039  -0.000243
              13         14         15         16         17         18
     1  C   -0.090706   0.006218  -0.065341   0.586130   0.005765  -0.036437
     2  C    0.006490  -0.090723   0.360382  -0.092540  -0.000543   0.002909
     3  C    0.005206  -0.000176   0.000042  -0.023536   0.387329  -0.041534
     4  C    0.008449  -0.000466   0.003778  -0.064875  -0.041538   0.387329
     5  C   -0.043387   0.002843   0.012368  -0.009199  -0.036437   0.005765
     6  C   -0.001506  -0.043387  -0.062659  -0.054879   0.002908  -0.000543
     7  C   -0.054879  -0.009199  -0.010074   0.006488  -0.000212   0.000062
     8  C   -0.062659   0.012368   0.006491  -0.010074   0.002487   0.000815
     9  C    0.521973  -0.099770  -0.054909  -0.062659  -0.000485  -0.000188
    10  C   -0.099783   0.017230  -0.009187   0.012368   0.000060   0.000012
    11  C   -0.003664  -0.081735  -0.023550   0.000042  -0.000001  -0.000000
    12  C   -0.065508   0.383869  -0.064875   0.003778  -0.000000  -0.000001
    13  C    5.254367   0.399163  -0.092549   0.360389  -0.000188  -0.000485
    14  C    0.399163   5.060588   0.586117  -0.065345   0.000012   0.000060
    15  C   -0.092549   0.586117   5.212690   0.008386   0.000062  -0.000212
    16  C    0.360389  -0.065345   0.008386   5.212650   0.000815   0.002486
    17  H   -0.000188   0.000012   0.000062   0.000815   0.475179  -0.004314
    18  H   -0.000485   0.000060  -0.000212   0.002486  -0.004314   0.475175
    19  H    0.000746  -0.001835  -0.003011  -0.000107   0.000008  -0.000005
    20  H    0.002337  -0.000436  -0.000107  -0.003010   0.000949  -0.000136
    21  H   -0.000543   0.005765   0.000815   0.000062   0.000000   0.000000
    22  H    0.002908  -0.036437   0.002488  -0.000212   0.000000   0.000000
    23  H    0.008893  -0.043349   0.391550  -0.000615  -0.000005   0.000008
    24  H   -0.042152   0.002948  -0.000615   0.391559  -0.000136   0.000949
              19         20         21         22         23         24
     1  C   -0.000436  -0.001836   0.000012   0.000060   0.002948  -0.043355
     2  C    0.002339   0.000748  -0.000188  -0.000485  -0.042155   0.008893
     3  C   -0.000243  -0.003227  -0.000001  -0.000000   0.000039   0.002016
     4  C    0.000039   0.002017  -0.000000  -0.000001  -0.000243  -0.003226
     5  C    0.002948  -0.043349   0.000060   0.000012  -0.000436  -0.001835
     6  C   -0.042152   0.008893  -0.000485  -0.000188   0.002337   0.000746
     7  C    0.391559  -0.000615   0.002486   0.000815  -0.003010  -0.000107
     8  C   -0.000615   0.391549  -0.000212   0.000062  -0.000107  -0.003011
     9  C    0.008893  -0.042155   0.002909  -0.000543   0.000748   0.002339
    10  C   -0.043355   0.002948  -0.036437   0.005765  -0.001836  -0.000436
    11  C   -0.003226  -0.000243   0.387329  -0.041538   0.002017   0.000039
    12  C    0.002016   0.000039  -0.041534   0.387329  -0.003227  -0.000243
    13  C    0.000746   0.002337  -0.000543   0.002908   0.008893  -0.042152
    14  C   -0.001835  -0.000436   0.005765  -0.036437  -0.043349   0.002948
    15  C   -0.003011  -0.000107   0.000815   0.002488   0.391550  -0.000615
    16  C   -0.000107  -0.003010   0.000062  -0.000212  -0.000615   0.391559
    17  H    0.000008   0.000949   0.000000   0.000000  -0.000005  -0.000136
    18  H   -0.000005  -0.000136   0.000000   0.000000   0.000008   0.000949
    19  H    0.478130   0.000084   0.000949  -0.000136  -0.000151  -0.000001
    20  H    0.000084   0.478137   0.000008  -0.000005  -0.000001  -0.000151
    21  H    0.000949   0.000008   0.475175  -0.004314  -0.000136  -0.000005
    22  H   -0.000136  -0.000005  -0.004314   0.475180   0.000949   0.000008
    23  H   -0.000151  -0.000001  -0.000136   0.000949   0.478136   0.000084
    24  H   -0.000001  -0.000151  -0.000005   0.000008   0.000084   0.478130
 Mulliken charges:
               1
     1  C   -0.004305
     2  C   -0.012892
     3  C   -0.200528
     4  C   -0.200542
     5  C   -0.004324
     6  C   -0.012916
     7  C   -0.198102
     8  C   -0.198079
     9  C   -0.012893
    10  C   -0.004305
    11  C   -0.200542
    12  C   -0.200527
    13  C   -0.012916
    14  C   -0.004324
    15  C   -0.198079
    16  C   -0.198101
    17  H    0.208282
    18  H    0.208284
    19  H    0.207561
    20  H    0.207561
    21  H    0.208283
    22  H    0.208282
    23  H    0.207561
    24  H    0.207561
 Sum of Mulliken charges =  -0.00000
 Mulliken charges with hydrogens summed into heavy atoms:
               1
     1  C   -0.004305
     2  C   -0.012892
     3  C    0.007754
     4  C    0.007742
     5  C   -0.004324
     6  C   -0.012916
     7  C    0.009460
     8  C    0.009482
     9  C   -0.012893
    10  C   -0.004305
    11  C    0.007742
    12  C    0.007754
    13  C   -0.012916
    14  C   -0.004324
    15  C    0.009482
    16  C    0.009460
 Electronic spatial extent (au):  <R**2>=           2111.8587
 Charge=             -0.0000 electrons
 Dipole moment (field-independent basis, Debye):
    X=              0.0000    Y=             -0.0000    Z=              0.0000  Tot=              0.0000
 Quadrupole moment (field-independent basis, Debye-Ang):
   XX=            -81.0383   YY=            -94.3322   ZZ=            -89.9105
   XY=             -1.8514   XZ=             -3.0684   YZ=              0.8812
 Traceless Quadrupole moment (field-independent basis, Debye-Ang):
   XX=              7.3887   YY=             -5.9052   ZZ=             -1.4835
   XY=             -1.8514   XZ=             -3.0684   YZ=              0.8812
 Octapole moment (field-independent basis, Debye-Ang**2):
  XXX=             -7.0072  YYY=            -34.1995  ZZZ=             17.1388  XYY=             -3.1664
  XXY=             -9.9000  XXZ=              4.9723  XZZ=             -2.2016  YZZ=            -10.9775
  YYZ=              6.2069  XYZ=             -0.2278
 Hexadecapole moment (field-independent basis, Debye-Ang**3):
 XXXX=          -1613.5146 YYYY=           -782.3911 ZZZZ=           -484.6168 XXXY=             53.0319
 XXXZ=             32.2101 YYYX=             42.3949 YYYZ=             23.5963 ZZZX=            -23.7180
 ZZZY=             15.6569 XXYY=           -390.3962 XXZZ=           -402.8298 YYZZ=           -196.5951
 XXYZ=             -4.6680 YYXZ=              2.8906 ZZXY=             19.9231
 N-N= 1.023717411213D+03 E-N=-3.472769580255D+03  KE= 6.115333324292D+02
 1\1\GINC-CU13\SP\RB3LYP\6-311G(d)\C16H8\WANG\18-Jun-2025\0\\# B3LYP/6-
 311G* NOSYMM\\From 2_2-CNB_opt.out\\0,1\C,0,1.377582,-1.246533,0.11394
 1\C,0,0.498485,-0.496668,1.076006\C,0,2.970676,0.487853,-0.006498\C,0,
 2.823513,-0.847598,0.146744\C,0,1.643962,1.170588,-0.163388\C,0,0.6482
 28,0.862068,0.920136\C,0,-0.637986,1.651928,0.92597\C,0,0.984541,1.211
 381,-1.353853\C,0,-0.440839,0.738364,-1.203086\C,0,-1.319937,1.488229,
 -0.241022\C,0,-2.765867,1.089293,-0.273824\C,0,-2.91303,-0.246157,-0.1
 20583\C,0,-0.590582,-0.620373,-1.047217\C,0,-1.586316,-0.928893,0.0363
 07\C,0,-0.926896,-0.969686,1.226773\C,0,0.695632,-1.410233,-1.05305\H,
 0,3.928979,0.997587,0.048443\H,0,3.650881,-1.525885,0.338005\H,0,-1.10
 7179,1.99872,1.843006\H,0,1.494526,1.234805,-2.313403\H,0,-3.593235,1.
 767581,-0.465086\H,0,-3.871334,-0.755892,-0.175524\H,0,-1.436881,-0.99
 311,2.186322\H,0,1.164825,-1.757025,-1.970086\\Version=ES64L-G16RevB.0
 1\HF=-614.2562048\RMSD=6.687e-09\Dipole=0.0000008,-0.0000015,0.0000005
 \Quadrupole=5.4933317,-4.390368,-1.1029637,-1.376498,-2.2812834,0.6551
 472\PG=CI [X(C16H8)]\\@


 IT IS DOUBTED WHETHER A MAN EVER BRINGS HIS FACULTIES TO BEAR WITH THEIR FULL FORCE
 ON A SUBJECT UNTIL HE WRITES UPON IT.

                          -- CICERO
 Job cpu time:       0 days  0 hours  5 minutes 41.0 seconds.
 Elapsed time:       0 days  0 hours  0 minutes 12.5 seconds.
 File lengths (MBytes):  RWF=     57 Int=      0 D2E=      0 Chk=      7 Scr=      1
 Normal termination of Gaussian 16 at Wed Jun 18 16:00:03 2025.
