 Entering Gaussian System, Link 0=g16
 Initial command:
 /opt/software/g16/l1.exe "/tmp/4_4-CNB-2749.tmp/Gau-153934.inp" -scrdir="/tmp/4_4-CNB-2749.tmp/"
 Entering Link 1 = /opt/software/g16/l1.exe PID=    153935.
  
 Copyright (c) 1988-2017, Gaussian, Inc.  All Rights Reserved.
  
 This is part of the Gaussian(R) 16 program.  It is based on
 the Gaussian(R) 09 system (copyright 2009, Gaussian, Inc.),
 the Gaussian(R) 03 system (copyright 2003, Gaussian, Inc.),
 the Gaussian(R) 98 system (copyright 1998, Gaussian, Inc.),
 the Gaussian(R) 94 system (copyright 1995, Gaussian, Inc.),
 the Gaussian 92(TM) system (copyright 1992, Gaussian, Inc.),
 the Gaussian 90(TM) system (copyright 1990, Gaussian, Inc.),
 the Gaussian 88(TM) system (copyright 1988, Gaussian, Inc.),
 the Gaussian 86(TM) system (copyright 1986, Carnegie Mellon
 University), and the Gaussian 82(TM) system (copyright 1983,
 Carnegie Mellon University). Gaussian is a federally registered
 trademark of Gaussian, Inc.
  
 This software contains proprietary and confidential information,
 including trade secrets, belonging to Gaussian, Inc.
  
 This software is provided under written license and may be
 used, copied, transmitted, or stored only in accord with that
 written license.
  
 The following legend is applicable only to US Government
 contracts under FAR:
  
                    RESTRICTED RIGHTS LEGEND
  
 Use, reproduction and disclosure by the US Government is
 subject to restrictions as set forth in subparagraphs (a)
 and (c) of the Commercial Computer Software - Restricted
 Rights clause in FAR 52.227-19.
  
 Gaussian, Inc.
 340 Quinnipiac St., Bldg. 40, Wallingford CT 06492
  
  
 ---------------------------------------------------------------
 Warning -- This program may not be used in any manner that
 competes with the business of Gaussian, Inc. or will provide
 assistance to any competitor of Gaussian, Inc.  The licensee
 of this program is prohibited from giving any competitor of
 Gaussian, Inc. access to this program.  By using this program,
 the user acknowledges that Gaussian, Inc. is engaged in the
 business of creating and licensing software in the field of
 computational chemistry and represents and warrants to the
 licensee that it is not a competitor of Gaussian, Inc. and that
 it will not use this program in any manner prohibited above.
 ---------------------------------------------------------------
  

 Cite this work as:
 Gaussian 16, Revision B.01,
 M. J. Frisch, G. W. Trucks, H. B. Schlegel, G. E. Scuseria, 
 M. A. Robb, J. R. Cheeseman, G. Scalmani, V. Barone, 
 G. A. Petersson, H. Nakatsuji, X. Li, M. Caricato, A. V. Marenich, 
 J. Bloino, B. G. Janesko, R. Gomperts, B. Mennucci, H. P. Hratchian, 
 J. V. Ortiz, A. F. Izmaylov, J. L. Sonnenberg, D. Williams-Young, 
 F. Ding, F. Lipparini, F. Egidi, J. Goings, B. Peng, A. Petrone, 
 T. Henderson, D. Ranasinghe, V. G. Zakrzewski, J. Gao, N. Rega, 
 G. Zheng, W. Liang, M. Hada, M. Ehara, K. Toyota, R. Fukuda, 
 J. Hasegawa, M. Ishida, T. Nakajima, Y. Honda, O. Kitao, H. Nakai, 
 T. Vreven, K. Throssell, J. A. Montgomery, Jr., J. E. Peralta, 
 F. Ogliaro, M. J. Bearpark, J. J. Heyd, E. N. Brothers, K. N. Kudin, 
 V. N. Staroverov, T. A. Keith, R. Kobayashi, J. Normand, 
 K. Raghavachari, A. P. Rendell, J. C. Burant, S. S. Iyengar, 
 J. Tomasi, M. Cossi, J. M. Millam, M. Klene, C. Adamo, R. Cammi, 
 J. W. Ochterski, R. L. Martin, K. Morokuma, O. Farkas, 
 J. B. Foresman, and D. J. Fox, Gaussian, Inc., Wallingford CT, 2016.
 
 ******************************************
 Gaussian 16:  ES64L-G16RevB.01 20-Dec-2017
                17-Jun-2025 
 ******************************************
 %nproc=28
 Will use up to   28 processors via shared memory.
 ----------------------
 # B3LYP/6-311G* NOSYMM
 ----------------------
 1/38=1,172=1/1;
 2/12=2,15=1,17=6,18=5,40=1/2;
 3/5=4,6=6,7=1,11=2,25=1,30=1,74=-5/1,2,3;
 4//1;
 5/5=2,38=5/2;
 6/7=2,8=2,9=2,10=2,28=1/1;
 99/5=1,9=1/99;
 --------------------
 From 4_4-CNB_opt.out
 --------------------
 Symbolic Z-matrix:
 Charge =  0 Multiplicity = 1
 6                     2.38117  -1.45572  -1.23889 
 6                     2.6958   -0.83208   0.00772 
 6                     2.79495   0.58445  -2.46876 
 6                     2.74978  -0.76861  -2.46896 
 6                     2.47293   1.29429  -1.23855 
 6                     2.74478   0.65058   0.00801 
 6                     2.45198   1.39134   1.16706 
 6                     1.55218   2.35475  -1.2742 
 6                     0.8321    2.6959   -0.11527 
 6                     1.45571   2.38122   1.13133 
 6                     0.76862   2.7499    2.36142 
 6                    -0.58443   2.79506   2.36121 
 6                    -0.65059   2.74487  -0.11556 
 6                    -1.29428   2.47297   1.13101 
 6                    -2.35467   1.55217   1.16665 
 6                    -1.39133   2.45204  -1.2746 
 6                    -2.38117   1.45572  -1.23889 
 6                    -2.6958    0.83208   0.00772 
 6                    -2.79495  -0.58445  -2.46876 
 6                    -2.74978   0.76861  -2.46896 
 6                    -2.47293  -1.29429  -1.23855 
 6                    -2.74478  -0.65058   0.00801 
 6                    -2.45198  -1.39134   1.16706 
 6                    -1.55218  -2.35475  -1.2742 
 6                    -0.8321   -2.6959   -0.11527 
 6                    -1.45571  -2.38122   1.13133 
 6                    -0.76862  -2.7499    2.36142 
 6                     0.58443  -2.79506   2.36121 
 6                     0.65059  -2.74487  -0.11556 
 6                     1.29428  -2.47297   1.13101 
 6                     2.35467  -1.55217   1.16665 
 6                     1.39133  -2.45204  -1.2746 
 1                     2.91083   1.14525  -3.393 
 1                     2.82796  -1.33562  -3.39337 
 1                     2.74245   1.01594   2.14445 
 1                     1.19764   2.6705   -2.25156 
 1                     1.33566   2.82818   3.28579 
 1                    -1.14525   2.91104   3.28544 
 1                    -2.67041   1.19761   2.144 
 1                    -1.01592   2.74252  -2.25198 
 1                    -2.91083  -1.14525  -3.393 
 1                    -2.82796   1.33562  -3.39337 
 1                    -2.74245  -1.01594   2.14445 
 1                    -1.19764  -2.67051  -2.25156 
 1                    -1.33566  -2.82818   3.28579 
 1                     1.14525  -2.91104   3.28544 
 1                     2.67041  -1.19761   2.144 
 1                     1.01592  -2.74252  -2.25198 
 
                          Input orientation:                          
 ---------------------------------------------------------------------
 Center     Atomic      Atomic             Coordinates (Angstroms)
 Number     Number       Type             X           Y           Z
 ---------------------------------------------------------------------
      1          6           0        2.381165   -1.455716   -1.238891
      2          6           0        2.695802   -0.832078    0.007719
      3          6           0        2.794951    0.584446   -2.468755
      4          6           0        2.749778   -0.768612   -2.468958
      5          6           0        2.472928    1.294294   -1.238549
      6          6           0        2.744777    0.650578    0.008008
      7          6           0        2.451983    1.391342    1.167059
      8          6           0        1.552180    2.354751   -1.274200
      9          6           0        0.832098    2.695897   -0.115274
     10          6           0        1.455713    2.381216    1.131331
     11          6           0        0.768617    2.749897    2.361417
     12          6           0       -0.584432    2.795060    2.361212
     13          6           0       -0.650589    2.744865   -0.115556
     14          6           0       -1.294275    2.472970    1.131009
     15          6           0       -2.354670    1.552169    1.166651
     16          6           0       -1.391328    2.452041   -1.274598
     17          6           0       -2.381165    1.455715   -1.238892
     18          6           0       -2.695802    0.832077    0.007719
     19          6           0       -2.794951   -0.584446   -2.468755
     20          6           0       -2.749777    0.768611   -2.468959
     21          6           0       -2.472928   -1.294295   -1.238549
     22          6           0       -2.744777   -0.650578    0.008008
     23          6           0       -2.451983   -1.391342    1.167059
     24          6           0       -1.552180   -2.354751   -1.274200
     25          6           0       -0.832098   -2.695898   -0.115274
     26          6           0       -1.455714   -2.381216    1.131331
     27          6           0       -0.768617   -2.749897    2.361417
     28          6           0        0.584431   -2.795060    2.361213
     29          6           0        0.650589   -2.744866   -0.115556
     30          6           0        1.294275   -2.472971    1.131009
     31          6           0        2.354670   -1.552169    1.166651
     32          6           0        1.391328   -2.452042   -1.274597
     33          1           0        2.910827    1.145251   -3.392996
     34          1           0        2.827963   -1.335623   -3.393367
     35          1           0        2.742450    1.015935    2.144449
     36          1           0        1.197640    2.670504   -2.251555
     37          1           0        1.335661    2.828182    3.285794
     38          1           0       -1.145248    2.911036    3.285435
     39          1           0       -2.670412    1.197610    2.144004
     40          1           0       -1.015918    2.742515   -2.251985
     41          1           0       -2.910826   -1.145252   -3.392996
     42          1           0       -2.827963    1.335622   -3.393367
     43          1           0       -2.742450   -1.015936    2.144448
     44          1           0       -1.197640   -2.670505   -2.251555
     45          1           0       -1.335662   -2.828182    3.285794
     46          1           0        1.145247   -2.911036    3.285436
     47          1           0        2.670412   -1.197610    2.144004
     48          1           0        1.015918   -2.742516   -2.251985
 ---------------------------------------------------------------------
                    Distance matrix (angstroms):
                    1          2          3          4          5
     1  C    0.000000
     2  C    1.428971   0.000000
     3  C    2.417860   2.854697   0.000000
     4  C    1.456383   2.478078   1.353812   0.000000
     5  C    2.751541   2.474735   1.456362   2.417878   0.000000
     6  C    2.474560   1.483465   2.478154   2.854730   1.429047
     7  C    3.728183   2.519348   3.740034   4.239658   2.407656
     8  C    3.899759   3.620368   2.470915   3.552054   1.404855
     9  C    4.571435   3.991883   3.721544   4.606533   2.432809
    10  C    4.603961   3.622925   4.240585   4.955613   2.798653
    11  C    5.766256   4.699413   5.667960   6.295826   4.240662
    12  C    6.310674   5.427246   6.295683   6.866386   4.955606
    13  C    5.300782   4.899801   4.698585   5.426372   3.622379
    14  C    5.878763   5.301494   5.765986   6.310466   4.603901
    15  C    6.104272   5.703948   6.377402   6.682744   5.399740
    16  C    5.431716   5.397630   4.736967   5.380322   4.034123
    17  C    5.581775   5.706455   5.391090   5.726017   4.856776
    18  C    5.706455   5.642589   6.028483   6.192776   5.336909
    19  C    5.391090   6.028484   5.710807   5.547787   5.726571
    20  C    5.726016   6.192776   5.547786   5.710355   5.391373
    21  C    4.856776   5.336909   5.726572   5.391373   5.582319
    22  C    5.336505   5.443606   6.192594   6.028219   5.706214
    23  C    5.399265   5.306273   6.682305   6.377047   6.103633
    24  C    4.034937   4.691183   5.381764   4.738156   5.433074
    25  C    3.622931   3.991871   5.427247   4.699372   5.301564
    26  C    4.603927   4.571369   6.310620   5.766172   5.878770
    27  C    4.955628   4.606530   6.866398   6.295801   6.310535
    28  C    4.240618   3.721575   6.295717   5.667960   5.766067
    29  C    2.432834   2.803007   4.606534   3.721650   4.571307
    30  C    2.798672   2.432815   4.955616   4.240647   4.603945
    31  C    2.407621   1.406423   4.239711   3.740017   3.728448
    32  C    1.404891   2.443414   3.551961   2.470996   3.899512
    33  H    3.418441   3.939661   1.087268   2.131350   2.203545
    34  H    2.203592   3.440699   2.131352   1.087266   3.418443
    35  H    4.205541   2.825410   4.633637   4.946533   3.405114
    36  H    4.410432   4.429096   2.636326   3.779407   2.132251
    37  H    6.318040   5.098359   6.346551   6.932087   4.910791
    38  H    7.209274   6.285538   7.351795   7.862829   6.014273
    39  H    6.633442   6.122058   7.178002   7.384031   6.156700
    40  H    5.494695   5.626797   4.384857   5.153208   3.911067
    41  H    5.722039   6.564847   6.033404   5.747881   6.291092
    42  H    6.290338   6.839466   5.747724   6.032705   5.722272
    43  H    6.155633   5.845853   7.382796   7.176995   6.631893
    44  H    3.912678   4.862409   5.155838   4.387091   5.497170
    45  H    6.014253   5.566229   7.862749   7.351858   7.209011
    46  H    4.910701   4.179679   6.931856   6.346460   6.317751
    47  H    3.405035   2.167481   4.946593   4.633547   4.205978
    48  H    2.132162   3.402653   3.778971   2.636218   4.409735
                    6          7          8          9         10
     6  C    0.000000
     7  C    1.406364   0.000000
     8  C    2.443471   2.774446   0.000000
     9  C    2.803011   2.443413   1.406417   0.000000
    10  C    2.432827   1.404878   2.407610   1.428966   0.000000
    11  C    3.721677   2.471009   3.740030   2.478093   1.456413
    12  C    4.606518   3.551935   4.239717   2.854711   2.417864
    13  C    3.991217   3.619818   2.519293   1.483495   2.474566
    14  C    4.571235   3.899445   3.728446   2.474748   2.751518
    15  C    5.306569   4.809343   4.676042   3.620350   3.899690
    16  C    4.690172   4.675234   2.945115   2.519349   3.728157
    17  C    5.336505   5.399265   4.034937   3.622931   4.603927
    18  C    5.443606   5.306273   4.691184   3.991871   4.571369
    19  C    6.192594   6.682305   5.381764   5.427247   6.310619
    20  C    6.028219   6.377047   4.738156   4.699372   5.766171
    21  C    5.706214   6.103634   5.433075   5.301564   5.878770
    22  C    5.641650   5.702557   5.398138   4.899809   5.300731
    23  C    5.702557   5.638458   6.002190   5.397693   5.431718
    24  C    5.398138   6.002190   5.640608   5.704116   6.104374
    25  C    4.899810   5.397694   5.704117   5.642783   5.706592
    26  C    5.300731   5.431719   6.104375   5.706591   5.581860
    27  C    5.426389   5.380392   6.682907   6.192977   5.726175
    28  C    4.698626   4.737058   6.377564   6.028676   5.391250
    29  C    3.991232   4.690239   5.306733   5.443790   5.336635
    30  C    3.622381   4.034167   5.399856   5.337043   4.856871
    31  C    2.519272   2.945119   4.676085   4.691228   4.034958
    32  C    3.619827   4.675283   4.809484   5.306415   5.399353
    33  H    3.440800   4.589684   2.792509   4.179603   4.910652
    34  H    3.939704   5.326836   4.442674   5.566195   6.014221
    35  H    2.167457   1.086551   3.859577   3.402656   2.132157
    36  H    3.402846   3.859605   1.086564   2.167478   3.405027
    37  H    4.179886   2.792798   4.589615   3.440689   2.203611
    38  H    5.566282   4.442641   5.326898   3.939671   3.418460
    39  H    5.846879   5.218322   5.554582   4.429083   4.410367
    40  H    4.860720   5.053896   2.775167   2.825397   4.205511
    41  H    6.839421   7.482522   6.054564   6.285489   7.209173
    42  H    6.564607   6.976992   4.971433   5.098263   6.317914
    43  H    6.119747   5.807961   6.441470   5.626850   5.494690
    44  H    5.628310   6.442458   5.811190   6.122238   6.633557
    45  H    6.284555   6.053072   7.483046   6.839729   6.290573
    46  H    5.097561   4.970466   6.977420   6.565104   5.722280
    47  H    2.825563   2.775753   5.055080   4.862420   3.912671
    48  H    4.428274   5.553461   5.217832   5.845995   6.155719
                   11         12         13         14         15
    11  C    0.000000
    12  C    1.353803   0.000000
    13  C    2.854745   2.478160   0.000000
    14  C    2.417874   1.456372   1.429050   0.000000
    15  C    3.552033   2.470930   2.443455   1.404842   0.000000
    16  C    4.239656   3.740034   1.406349   2.407655   2.774436
    17  C    4.955629   4.240618   2.432835   2.798673   2.407622
    18  C    4.606531   3.721574   2.803007   2.432815   1.406423
    19  C    6.866398   6.295716   4.606533   4.955615   4.239711
    20  C    6.295802   5.667960   3.721650   4.240648   3.740018
    21  C    6.310535   5.766066   4.571307   4.603945   3.728449
    22  C    5.426389   4.698625   3.991231   3.622380   2.519272
    23  C    5.380392   4.737057   4.690238   4.034166   2.945119
    24  C    6.682907   6.377563   5.306732   5.399855   4.676085
    25  C    6.192977   6.028677   5.443790   5.337043   4.691229
    26  C    5.726175   5.391250   5.336634   4.856870   4.034958
    27  C    5.710589   5.548015   6.028411   5.391527   4.738228
    28  C    5.548015   5.711014   6.192772   5.726699   5.381793
    29  C    6.028412   6.192773   5.641827   5.706333   5.398161
    30  C    5.391528   5.726700   5.706333   5.582376   5.433031
    31  C    4.738228   5.381793   5.398161   5.433030   5.640461
    32  C    6.377189   6.682426   5.702687   6.103699   6.002158
    33  H    6.346434   6.931783   5.097456   6.317622   6.977207
    34  H    7.351865   7.862707   6.284485   7.208898   7.482833
    35  H    2.636231   3.778944   4.428265   4.409667   5.217688
    36  H    4.633560   4.946606   2.825592   4.205996   5.055068
    37  H    1.087263   2.131362   3.939710   3.418455   4.442693
    38  H    2.131350   1.087269   3.440791   2.203557   2.792573
    39  H    3.779389   2.636349   3.402836   2.132242   1.086565
    40  H    4.946524   4.633630   2.167441   3.405112   3.859566
    41  H    7.862808   7.351808   5.566264   6.014265   5.326891
    42  H    6.932034   6.346540   4.179829   4.910778   4.589626
    43  H    5.153267   4.384942   4.860774   3.911104   2.775180
    44  H    7.384202   7.178164   5.847050   6.156818   5.554622
    45  H    6.033028   5.748047   6.564858   5.722502   4.971581
    46  H    5.748202   6.033698   6.839663   6.291291   6.054657
    47  H    4.387129   5.155832   5.628301   5.497096   5.811020
    48  H    7.177133   7.382916   6.119879   6.631963   6.441448
                   16         17         18         19         20
    16  C    0.000000
    17  C    1.404891   0.000000
    18  C    2.443414   1.428972   0.000000
    19  C    3.551960   2.417858   2.854696   0.000000
    20  C    2.470995   1.456383   2.478079   1.353811   0.000000
    21  C    3.899512   2.751541   2.474735   1.456362   2.417878
    22  C    3.619827   2.474559   1.483464   2.478154   2.854731
    23  C    4.675283   3.728183   2.519347   3.740034   4.239659
    24  C    4.809483   3.899758   3.620367   2.470915   3.552053
    25  C    5.306416   4.571435   3.991883   3.721545   4.606533
    26  C    5.399353   4.603961   3.622923   4.240585   4.955613
    27  C    6.377188   5.766256   4.699412   5.667960   6.295826
    28  C    6.682426   6.310674   5.427245   6.295683   6.866386
    29  C    5.702688   5.300783   4.899801   4.698586   5.426372
    30  C    6.103700   5.878764   5.301494   5.765986   6.310466
    31  C    6.002158   6.104272   5.703948   6.377402   6.682743
    32  C    5.638546   5.431716   5.397629   4.736967   5.380321
    33  H    4.970297   5.722039   6.564848   6.033405   5.747881
    34  H    6.052933   6.290337   6.839466   5.747724   6.032704
    35  H    5.553414   6.155634   5.845854   7.382796   7.176995
    36  H    2.775775   3.912677   4.862409   5.155837   4.387090
    37  H    5.326831   6.014253   5.566229   7.862749   7.351858
    38  H    4.589677   4.910701   4.179678   6.931855   6.346460
    39  H    3.859597   3.405036   2.167481   4.946593   4.633548
    40  H    1.086551   2.132161   3.402653   3.778970   2.636217
    41  H    4.442634   3.418440   3.939661   1.087268   2.131350
    42  H    2.792757   2.203591   3.440699   2.131351   1.087265
    43  H    5.053936   4.205541   2.825410   4.633636   4.946533
    44  H    5.218471   4.410432   4.429096   2.636327   3.779406
    45  H    6.977179   6.318040   5.098358   6.346551   6.932086
    46  H    7.482695   7.209275   6.285537   7.351795   7.862829
    47  H    6.442400   6.633442   6.122058   7.178002   7.384030
    48  H    5.808058   5.494695   5.626797   4.384858   5.153208
                   21         22         23         24         25
    21  C    0.000000
    22  C    1.429048   0.000000
    23  C    2.407656   1.406364   0.000000
    24  C    1.404854   2.443471   2.774446   0.000000
    25  C    2.432809   2.803011   2.443414   1.406417   0.000000
    26  C    2.798652   2.432827   1.404877   2.407610   1.428967
    27  C    4.240661   3.721677   2.471009   3.740030   2.478093
    28  C    4.955606   4.606517   3.551934   4.239718   2.854711
    29  C    3.622379   3.991218   3.619818   2.519293   1.483495
    30  C    4.603901   4.571235   3.899445   3.728446   2.474748
    31  C    5.399740   5.306569   4.809343   4.676042   3.620351
    32  C    4.034123   4.690172   4.675233   2.945115   2.519349
    33  H    6.291092   6.839422   7.482522   6.054564   6.285489
    34  H    5.722272   6.564607   6.976992   4.971433   5.098263
    35  H    6.631893   6.119747   5.807961   6.441470   5.626850
    36  H    5.497170   5.628309   6.442458   5.811189   6.122238
    37  H    7.209011   6.284555   6.053071   7.483045   6.839730
    38  H    6.317751   5.097560   4.970466   6.977419   6.565104
    39  H    4.205979   2.825563   2.775753   5.055080   4.862421
    40  H    4.409735   4.428273   5.553460   5.217831   5.845995
    41  H    2.203545   3.440800   4.589684   2.792508   4.179602
    42  H    3.418443   3.939703   5.326836   4.442673   5.566195
    43  H    3.405113   2.167457   1.086550   3.859575   3.402655
    44  H    2.132251   3.402846   3.859606   1.086564   2.167478
    45  H    4.910790   4.179886   2.792798   4.589615   3.440689
    46  H    6.014273   5.566282   4.442641   5.326898   3.939671
    47  H    6.156700   5.846879   5.218322   5.554582   4.429083
    48  H    3.911067   4.860720   5.053897   2.775167   2.825397
                   26         27         28         29         30
    26  C    0.000000
    27  C    1.456413   0.000000
    28  C    2.417864   1.353802   0.000000
    29  C    2.474567   2.854745   2.478161   0.000000
    30  C    2.751519   2.417874   1.456373   1.429050   0.000000
    31  C    3.899691   3.552033   2.470932   2.443455   1.404843
    32  C    3.728157   4.239655   3.740035   1.406349   2.407654
    33  H    7.209174   7.862808   7.351809   5.566264   6.014266
    34  H    6.317915   6.932034   6.346541   4.179829   4.910778
    35  H    5.494691   5.153267   4.384942   4.860775   3.911104
    36  H    6.633557   7.384201   7.178164   5.847050   6.156818
    37  H    6.290573   6.033028   5.748047   6.564859   5.722502
    38  H    5.722280   5.748202   6.033698   6.839664   6.291292
    39  H    3.912671   4.387129   5.155831   5.628301   5.497096
    40  H    6.155718   7.177132   7.382916   6.119879   6.631963
    41  H    4.910651   6.346433   6.931783   5.097456   6.317621
    42  H    6.014220   7.351864   7.862707   6.284485   7.208898
    43  H    2.132155   2.636231   3.778943   4.428265   4.409666
    44  H    3.405027   4.633560   4.946607   2.825592   4.205996
    45  H    2.203611   1.087263   2.131362   3.939710   3.418456
    46  H    3.418461   2.131350   1.087269   3.440791   2.203558
    47  H    4.410368   3.779389   2.636350   3.402837   2.132242
    48  H    4.205512   4.946524   4.633631   2.167441   3.405112
                   31         32         33         34         35
    31  C    0.000000
    32  C    2.774435   0.000000
    33  H    5.326891   4.442635   0.000000
    34  H    4.589626   2.792758   2.482258   0.000000
    35  H    2.775179   5.053936   5.541513   6.017021   0.000000
    36  H    5.554621   5.218471   2.562088   4.473337   4.944582
    37  H    4.971581   6.977179   7.065383   8.010957   2.562413
    38  H    6.054657   7.482694   8.010692   8.855897   4.472969
    39  H    5.811020   6.442401   7.862019   8.204381   5.415910
    40  H    6.441448   5.808058   4.390044   5.719212   6.036145
    41  H    6.977206   4.970296   6.256041   5.741946   8.203265
    42  H    7.482833   6.052933   5.741947   6.255002   7.861241
    43  H    5.217688   5.553412   8.203265   7.861240   5.849156
    44  H    5.055068   2.775775   5.722096   4.392166   6.959813
    45  H    4.442694   5.326830   8.855906   8.010911   5.719344
    46  H    2.792575   4.589677   8.010755   7.065399   4.390218
    47  H    1.086565   3.859597   6.017073   5.541331   2.214717
    48  H    3.859567   1.086552   4.472954   2.562344   6.036182
                   36         37         38         39         40
    36  H    0.000000
    37  H    5.541313   0.000000
    38  H    6.017079   2.482292   0.000000
    39  H    6.037564   4.473373   2.562190   0.000000
    40  H    2.214729   6.016997   5.541493   4.944573   0.000000
    41  H    5.722095   8.855906   8.010754   6.017073   4.472954
    42  H    4.392166   8.010911   7.065398   5.541331   2.562344
    43  H    6.959813   5.719345   4.390218   2.214718   6.036182
    44  H    5.853524   8.204597   7.862226   6.037575   5.416069
    45  H    8.204596   6.255431   5.742376   4.392294   7.861418
    46  H    7.862226   5.742376   6.256428   5.722158   8.203432
    47  H    6.037574   4.392294   5.722159   5.853331   6.959765
    48  H    5.416069   7.861419   8.203433   6.959766   5.849267
                   41         42         43         44         45
    41  H    0.000000
    42  H    2.482257   0.000000
    43  H    5.541512   6.017020   0.000000
    44  H    2.562087   4.473337   4.944581   0.000000
    45  H    7.065383   8.010956   2.562413   5.541313   0.000000
    46  H    8.010691   8.855897   4.472968   6.017079   2.482292
    47  H    7.862018   8.204381   5.415910   6.037564   4.473374
    48  H    4.390043   5.719212   6.036144   2.214729   6.016998
                   46         47         48
    46  H    0.000000
    47  H    2.562191   0.000000
    48  H    5.541494   4.944573   0.000000
 Symmetry turned off by external request.
 Stoichiometry    C32H16
 Framework group  C1[X(C32H16)]
 Deg. of freedom   138
 Full point group                 C1      NOp   1
 Rotational constants (GHZ):           0.1966598           0.1966530           0.1576481
 Standard basis: 6-311G(d) (5D, 7F)
   624 basis functions,  1104 primitive gaussians,   656 cartesian basis functions
   104 alpha electrons      104 beta electrons
       nuclear repulsion energy      3035.1212466265 Hartrees.
 NAtoms=   48 NActive=   48 NUniq=   48 SFac= 1.00D+00 NAtFMM=   60 NAOKFM=F Big=F
 Integral buffers will be    131072 words long.
 Raffenetti 2 integral format.
 Two-electron integral symmetry is turned off.
 One-electron integrals computed using PRISM.
 NBasis=   624 RedAO= T EigKep=  1.32D-04  NBF=   624
 NBsUse=   624 1.00D-06 EigRej= -1.00D+00 NBFU=   624
 ExpMin= 1.03D-01 ExpMax= 4.56D+03 ExpMxC= 6.82D+02 IAcc=3 IRadAn=         5 AccDes= 0.00D+00
 Harris functional with IExCor=  402 and IRadAn=       5 diagonalized for initial guess.
 HarFok:  IExCor=  402 AccDes= 0.00D+00 IRadAn=         5 IDoV= 1 UseB2=F ITyADJ=14
 ICtDFT=  3500011 ScaDFX=  1.000000  1.000000  1.000000  1.000000
 FoFCou: FMM=F IPFlag=           0 FMFlag=      100000 FMFlg1=           0
         NFxFlg=           0 DoJE=T BraDBF=F KetDBF=T FulRan=T
         wScrn=  0.000000 ICntrl=       500 IOpCl=  0 I1Cent=   200000004 NGrid=           0
         NMat0=    1 NMatS0=      1 NMatT0=    0 NMatD0=    1 NMtDS0=    0 NMtDT0=    0
 Symmetry not used in FoFCou.
 Requested convergence on RMS density matrix=1.00D-08 within 128 cycles.
 Requested convergence on MAX density matrix=1.00D-06.
 Requested convergence on             energy=1.00D-06.
 No special actions if energy rises.
 Integral accuracy reduced to 1.0D-05 until final iterations.
 Initial convergence to 1.0D-05 achieved.  Increase integral accuracy.
 SCF Done:  E(RB3LYP) =  -1229.10826147     A.U. after   14 cycles
            NFock= 14  Conv=0.43D-08     -V/T= 2.0044

 **********************************************************************

            Population analysis using the SCF Density.

 **********************************************************************

 Alpha  occ. eigenvalues --  -10.19794 -10.19793 -10.19793 -10.19792 -10.19767
 Alpha  occ. eigenvalues --  -10.19765 -10.19765 -10.19764 -10.19414 -10.19413
 Alpha  occ. eigenvalues --  -10.19413 -10.19413 -10.19411 -10.19411 -10.19411
 Alpha  occ. eigenvalues --  -10.19410 -10.18619 -10.18618 -10.18618 -10.18618
 Alpha  occ. eigenvalues --  -10.18616 -10.18616 -10.18616 -10.18615 -10.18437
 Alpha  occ. eigenvalues --  -10.18437 -10.18437 -10.18437 -10.18366 -10.18366
 Alpha  occ. eigenvalues --  -10.18366 -10.18366  -0.90868  -0.89368  -0.89368
 Alpha  occ. eigenvalues --   -0.85657  -0.85201  -0.81702  -0.81702  -0.80283
 Alpha  occ. eigenvalues --   -0.78936  -0.76997  -0.76604  -0.76603  -0.73523
 Alpha  occ. eigenvalues --   -0.73522  -0.70643  -0.70412  -0.66796  -0.65221
 Alpha  occ. eigenvalues --   -0.63250  -0.63250  -0.62279  -0.60854  -0.60854
 Alpha  occ. eigenvalues --   -0.58012  -0.56466  -0.56169  -0.56168  -0.53703
 Alpha  occ. eigenvalues --   -0.52920  -0.50332  -0.50332  -0.50165  -0.48784
 Alpha  occ. eigenvalues --   -0.47861  -0.47860  -0.46021  -0.45335  -0.45335
 Alpha  occ. eigenvalues --   -0.44636  -0.44028  -0.43870  -0.43767  -0.43637
 Alpha  occ. eigenvalues --   -0.43636  -0.42472  -0.42285  -0.42285  -0.42103
 Alpha  occ. eigenvalues --   -0.41637  -0.40159  -0.40159  -0.38770  -0.37381
 Alpha  occ. eigenvalues --   -0.34834  -0.34705  -0.34704  -0.34492  -0.34275
 Alpha  occ. eigenvalues --   -0.34275  -0.32887  -0.31785  -0.31473  -0.31473
 Alpha  occ. eigenvalues --   -0.30845  -0.28651  -0.26640  -0.25137  -0.25137
 Alpha  occ. eigenvalues --   -0.22831  -0.22830  -0.20360  -0.18089
 Alpha virt. eigenvalues --   -0.08874  -0.05932  -0.04293  -0.04292  -0.02845
 Alpha virt. eigenvalues --   -0.02131  -0.02131   0.01056   0.01953   0.02636
 Alpha virt. eigenvalues --    0.02636   0.03534   0.04511   0.05099   0.05099
 Alpha virt. eigenvalues --    0.06003   0.06634   0.06634   0.07659   0.08349
 Alpha virt. eigenvalues --    0.08963   0.09492   0.09493   0.10263   0.10451
 Alpha virt. eigenvalues --    0.10547   0.12679   0.12680   0.15875   0.15875
 Alpha virt. eigenvalues --    0.17466   0.18248   0.19035   0.21395   0.21395
 Alpha virt. eigenvalues --    0.22789   0.22983   0.23959   0.23978   0.23978
 Alpha virt. eigenvalues --    0.25059   0.25837   0.25838   0.25846   0.26703
 Alpha virt. eigenvalues --    0.29360   0.29361   0.29677   0.30372   0.30576
 Alpha virt. eigenvalues --    0.30576   0.30709   0.31105   0.31684   0.31685
 Alpha virt. eigenvalues --    0.33067   0.34514   0.35228   0.35599   0.36071
 Alpha virt. eigenvalues --    0.36071   0.36697   0.36972   0.37570   0.37570
 Alpha virt. eigenvalues --    0.37908   0.37908   0.38885   0.39486   0.39830
 Alpha virt. eigenvalues --    0.40025   0.40025   0.40684   0.41179   0.41180
 Alpha virt. eigenvalues --    0.42337   0.42887   0.43074   0.43259   0.43260
 Alpha virt. eigenvalues --    0.43597   0.43597   0.43960   0.44016   0.44370
 Alpha virt. eigenvalues --    0.45419   0.45419   0.45468   0.45690   0.45690
 Alpha virt. eigenvalues --    0.46666   0.47349   0.47505   0.47856   0.47856
 Alpha virt. eigenvalues --    0.48239   0.48281   0.48281   0.49474   0.49474
 Alpha virt. eigenvalues --    0.49582   0.49594   0.50685   0.51707   0.51940
 Alpha virt. eigenvalues --    0.52442   0.52443   0.52555   0.53329   0.53329
 Alpha virt. eigenvalues --    0.54526   0.54526   0.54551   0.55809   0.55967
 Alpha virt. eigenvalues --    0.56251   0.57188   0.58324   0.58409   0.58410
 Alpha virt. eigenvalues --    0.58501   0.58660   0.58661   0.59430   0.59898
 Alpha virt. eigenvalues --    0.59899   0.60160   0.60480   0.60625   0.61773
 Alpha virt. eigenvalues --    0.61773   0.61824   0.62654   0.63494   0.63494
 Alpha virt. eigenvalues --    0.63727   0.64238   0.64306   0.64306   0.64597
 Alpha virt. eigenvalues --    0.66296   0.66376   0.66638   0.66639   0.67813
 Alpha virt. eigenvalues --    0.68421   0.68421   0.69265   0.69615   0.69629
 Alpha virt. eigenvalues --    0.69676   0.69676   0.70152   0.71305   0.71306
 Alpha virt. eigenvalues --    0.71993   0.73392   0.73572   0.75114   0.75115
 Alpha virt. eigenvalues --    0.76840   0.78131   0.78131   0.78228   0.78398
 Alpha virt. eigenvalues --    0.79003   0.79004   0.79419   0.79422   0.82284
 Alpha virt. eigenvalues --    0.82413   0.82572   0.82573   0.82778   0.83619
 Alpha virt. eigenvalues --    0.84628   0.84647   0.84648   0.86722   0.86723
 Alpha virt. eigenvalues --    0.87421   0.87421   0.87959   0.90202   0.90203
 Alpha virt. eigenvalues --    0.91124   0.91835   0.91835   0.92157   0.92455
 Alpha virt. eigenvalues --    0.95791   0.96599   0.96599   0.98156   1.00034
 Alpha virt. eigenvalues --    1.00360   1.00882   1.00882   1.01284   1.01702
 Alpha virt. eigenvalues --    1.01703   1.01729   1.03271   1.03752   1.04660
 Alpha virt. eigenvalues --    1.06166   1.06166   1.07164   1.09795   1.09796
 Alpha virt. eigenvalues --    1.10403   1.13340   1.13343   1.15216   1.16206
 Alpha virt. eigenvalues --    1.16412   1.17452   1.17453   1.19292   1.19689
 Alpha virt. eigenvalues --    1.22307   1.23186   1.24045   1.24541   1.24542
 Alpha virt. eigenvalues --    1.25275   1.26734   1.26734   1.27346   1.27347
 Alpha virt. eigenvalues --    1.27603   1.28652   1.34682   1.34683   1.36338
 Alpha virt. eigenvalues --    1.39110   1.40202   1.40697   1.40698   1.40954
 Alpha virt. eigenvalues --    1.40971   1.42597   1.43303   1.43338   1.43338
 Alpha virt. eigenvalues --    1.45025   1.45025   1.46003   1.49029   1.49029
 Alpha virt. eigenvalues --    1.49329   1.49692   1.49732   1.49962   1.49963
 Alpha virt. eigenvalues --    1.51127   1.51815   1.52000   1.52001   1.52242
 Alpha virt. eigenvalues --    1.52791   1.53555   1.53557   1.55095   1.57608
 Alpha virt. eigenvalues --    1.57608   1.59501   1.59656   1.59835   1.59835
 Alpha virt. eigenvalues --    1.61103   1.61297   1.63384   1.63384   1.64277
 Alpha virt. eigenvalues --    1.64285   1.66529   1.66738   1.69930   1.69931
 Alpha virt. eigenvalues --    1.70322   1.70561   1.71230   1.71230   1.73918
 Alpha virt. eigenvalues --    1.74803   1.75462   1.75591   1.75591   1.76289
 Alpha virt. eigenvalues --    1.78080   1.78081   1.80514   1.80514   1.82058
 Alpha virt. eigenvalues --    1.82063   1.82838   1.82838   1.83121   1.87429
 Alpha virt. eigenvalues --    1.89178   1.90595   1.90596   1.91425   1.92126
 Alpha virt. eigenvalues --    1.92126   1.93092   1.93849   1.94504   1.94504
 Alpha virt. eigenvalues --    1.95278   1.96569   1.99223   1.99856   1.99978
 Alpha virt. eigenvalues --    1.99978   2.01608   2.01608   2.01985   2.03037
 Alpha virt. eigenvalues --    2.04013   2.05084   2.05629   2.05630   2.07399
 Alpha virt. eigenvalues --    2.07952   2.09574   2.09574   2.10181   2.10181
 Alpha virt. eigenvalues --    2.10199   2.12719   2.12720   2.13308   2.13569
 Alpha virt. eigenvalues --    2.14436   2.14437   2.16682   2.17190   2.17542
 Alpha virt. eigenvalues --    2.19121   2.20048   2.20358   2.20359   2.25517
 Alpha virt. eigenvalues --    2.25518   2.26116   2.27518   2.28573   2.30368
 Alpha virt. eigenvalues --    2.30369   2.32167   2.34176   2.34176   2.36765
 Alpha virt. eigenvalues --    2.37928   2.37932   2.38089   2.38143   2.40468
 Alpha virt. eigenvalues --    2.40468   2.43406   2.44667   2.44667   2.45339
 Alpha virt. eigenvalues --    2.45339   2.45886   2.46857   2.47056   2.47056
 Alpha virt. eigenvalues --    2.47549   2.50959   2.54463   2.54464   2.57387
 Alpha virt. eigenvalues --    2.60340   2.62318   2.63858   2.63890   2.63891
 Alpha virt. eigenvalues --    2.65454   2.65555   2.66294   2.67096   2.67097
 Alpha virt. eigenvalues --    2.68633   2.69406   2.69406   2.73162   2.74289
 Alpha virt. eigenvalues --    2.74290   2.77419   2.78031   2.78032   2.78037
 Alpha virt. eigenvalues --    2.81443   2.81799   2.82808   2.82809   2.84867
 Alpha virt. eigenvalues --    2.90969   2.94073   2.94074   2.94238   2.96594
 Alpha virt. eigenvalues --    2.96594   2.98058   2.98859   2.99603   3.00487
 Alpha virt. eigenvalues --    3.00489   3.02938   3.02938   3.04260   3.04310
 Alpha virt. eigenvalues --    3.07618   3.07635   3.08378   3.08379   3.08940
 Alpha virt. eigenvalues --    3.09903   3.11229   3.12351   3.12400   3.12401
 Alpha virt. eigenvalues --    3.13765   3.15715   3.15715   3.17968   3.18187
 Alpha virt. eigenvalues --    3.18927   3.18928   3.21203   3.21203   3.24774
 Alpha virt. eigenvalues --    3.25139   3.25174   3.26579   3.27966   3.27968
 Alpha virt. eigenvalues --    3.28824   3.29764   3.30560   3.30561   3.32649
 Alpha virt. eigenvalues --    3.32650   3.33565   3.39518   3.41393   3.41394
 Alpha virt. eigenvalues --    3.41947   3.43148   3.45130   3.46548   3.46549
 Alpha virt. eigenvalues --    3.46745   3.47365   3.49059   3.49059   3.52552
 Alpha virt. eigenvalues --    3.62246   3.62247   3.65722   3.73952   3.79273
 Alpha virt. eigenvalues --    3.82318   3.82318   3.89328   3.93699   3.94395
 Alpha virt. eigenvalues --    3.97449   3.97450   4.02386   4.02388   4.04834
 Alpha virt. eigenvalues --    4.09280   4.10587   4.23769   4.23770   4.35890
 Alpha virt. eigenvalues --    4.46717   4.50686   4.50690   4.56946   4.61517
 Alpha virt. eigenvalues --    4.71869   4.71871   4.81214  23.10850  23.27037
 Alpha virt. eigenvalues --   23.27038  23.48806  23.55262  23.60627  23.60630
 Alpha virt. eigenvalues --   23.63697  23.72661  23.80253  23.80255  23.82833
 Alpha virt. eigenvalues --   23.84888  23.93761  23.93764  23.97265  23.97491
 Alpha virt. eigenvalues --   23.97910  23.97911  24.00837  24.01763  24.01763
 Alpha virt. eigenvalues --   24.02651  24.04726  24.05214  24.05215  24.05462
 Alpha virt. eigenvalues --   24.07701  24.16017  24.16021  24.18354  24.18859
          Condensed to atoms (all electrons):
               1          2          3          4          5          6
     1  C    4.890346   0.522391  -0.053871   0.424613  -0.031347  -0.061628
     2  C    0.522391   4.878974  -0.028185  -0.045057  -0.061614   0.411697
     3  C   -0.053871  -0.028185   5.041830   0.582387   0.424659  -0.045055
     4  C    0.424613  -0.045057   0.582387   5.041888  -0.053868  -0.028205
     5  C   -0.031347  -0.061614   0.424659  -0.053868   4.890001   0.522442
     6  C   -0.061628   0.411697  -0.045055  -0.028205   0.522442   4.878932
     7  C    0.005560  -0.072144   0.009381  -0.000366  -0.070348   0.533326
     8  C    0.001653   0.008581  -0.063240   0.000737   0.485773  -0.067142
     9  C    0.001121   0.001009   0.004610   0.000074  -0.045132  -0.037882
    10  C    0.000156   0.003615   0.000443   0.000102  -0.029479  -0.045073
    11  C    0.000015  -0.000167  -0.000012   0.000001   0.000445   0.004614
    12  C   -0.000001   0.000046   0.000001  -0.000001   0.000102   0.000073
    13  C   -0.000085  -0.000121  -0.000166   0.000046   0.003613   0.001003
    14  C   -0.000026  -0.000085   0.000015  -0.000001   0.000156   0.001119
    15  C    0.000004   0.000033  -0.000002   0.000001  -0.000030  -0.000077
    16  C   -0.000070  -0.000061   0.000216  -0.000041   0.001900   0.000899
    17  C    0.000029   0.000055  -0.000057  -0.000015   0.000020  -0.000059
    18  C    0.000055   0.000025  -0.000011   0.000003  -0.000059  -0.000155
    19  C   -0.000057  -0.000011   0.000002   0.000033  -0.000015   0.000003
    20  C   -0.000015   0.000003   0.000033   0.000002  -0.000057  -0.000011
    21  C    0.000020  -0.000059  -0.000015  -0.000057   0.000029   0.000055
    22  C   -0.000059  -0.000155   0.000003  -0.000011   0.000055   0.000025
    23  C   -0.000030  -0.000077   0.000001  -0.000002   0.000004   0.000033
    24  C    0.001899   0.000899  -0.000041   0.000214  -0.000070  -0.000061
    25  C    0.003616   0.001008   0.000046  -0.000167  -0.000085  -0.000121
    26  C    0.000156   0.001121  -0.000001   0.000015  -0.000026  -0.000085
    27  C    0.000102   0.000074  -0.000001   0.000001  -0.000001   0.000046
    28  C    0.000443   0.004611   0.000001  -0.000012   0.000015  -0.000166
    29  C   -0.045074  -0.037882   0.000073   0.004614   0.001119   0.001003
    30  C   -0.029478  -0.045128   0.000102   0.000444   0.000156   0.003613
    31  C   -0.070356   0.533148  -0.000367   0.009381   0.005567  -0.072172
    32  C    0.485695  -0.067160   0.000736  -0.063214   0.001660   0.008585
    33  H    0.005868   0.000051   0.394089  -0.038508  -0.046476   0.004862
    34  H   -0.046472   0.004861  -0.038507   0.394102   0.005866   0.000052
    35  H   -0.000114  -0.009990  -0.000426   0.000013   0.006463  -0.038366
    36  H   -0.000036  -0.000457  -0.004242   0.000515  -0.049676   0.005946
    37  H   -0.000001  -0.000047  -0.000000   0.000000   0.000027   0.000204
    38  H    0.000000  -0.000001   0.000000   0.000000  -0.000001   0.000005
    39  H    0.000000   0.000001   0.000000  -0.000000   0.000001   0.000001
    40  H    0.000015  -0.000008   0.000085  -0.000040   0.000648   0.000055
    41  H    0.000000   0.000000   0.000001   0.000003   0.000000  -0.000000
    42  H    0.000000  -0.000000   0.000003   0.000001   0.000000   0.000000
    43  H    0.000001   0.000002  -0.000000   0.000000   0.000000   0.000001
    44  H    0.000649   0.000055  -0.000040   0.000083   0.000014  -0.000008
    45  H   -0.000001   0.000005   0.000000   0.000000   0.000000  -0.000001
    46  H    0.000027   0.000205   0.000000  -0.000000  -0.000001  -0.000047
    47  H    0.006461  -0.038365   0.000013  -0.000426  -0.000116  -0.009977
    48  H   -0.049682   0.005950   0.000517  -0.004241  -0.000037  -0.000457
               7          8          9         10         11         12
     1  C    0.005560   0.001653   0.001121   0.000156   0.000015  -0.000001
     2  C   -0.072144   0.008581   0.001009   0.003615  -0.000167   0.000046
     3  C    0.009381  -0.063240   0.004610   0.000443  -0.000012   0.000001
     4  C   -0.000366   0.000737   0.000074   0.000102   0.000001  -0.000001
     5  C   -0.070348   0.485773  -0.045132  -0.029479   0.000445   0.000102
     6  C    0.533326  -0.067142  -0.037882  -0.045073   0.004614   0.000073
     7  C    5.139586  -0.038152  -0.067160   0.485710  -0.063215   0.000736
     8  C   -0.038152   5.139967   0.533162  -0.070356   0.009380  -0.000367
     9  C   -0.067160   0.533162   4.878985   0.522387  -0.045056  -0.028181
    10  C    0.485710  -0.070356   0.522387   4.890377   0.424597  -0.053877
    11  C   -0.063215   0.009380  -0.045056   0.424597   5.041894   0.582395
    12  C    0.000736  -0.000367  -0.028181  -0.053877   0.582395   5.041831
    13  C    0.008585  -0.072171   0.411676  -0.061632  -0.028202  -0.045055
    14  C    0.001660   0.005566  -0.061620  -0.031344  -0.053873   0.424648
    15  C   -0.000137   0.000074   0.008581   0.001653   0.000737  -0.063240
    16  C    0.000074  -0.027463  -0.072144   0.005559  -0.000366   0.009381
    17  C   -0.000030   0.001899   0.003616   0.000156   0.000102   0.000443
    18  C   -0.000077   0.000899   0.001008   0.001121   0.000074   0.004611
    19  C    0.000001  -0.000041   0.000046  -0.000001  -0.000001   0.000001
    20  C   -0.000002   0.000214  -0.000167   0.000015   0.000001  -0.000012
    21  C    0.000004  -0.000070  -0.000085  -0.000026  -0.000001   0.000015
    22  C    0.000033  -0.000061  -0.000121  -0.000085   0.000046  -0.000166
    23  C    0.000034  -0.000021  -0.000061  -0.000070  -0.000041   0.000216
    24  C   -0.000021   0.000034   0.000033   0.000004   0.000001  -0.000002
    25  C   -0.000061   0.000033   0.000025   0.000055   0.000003  -0.000011
    26  C   -0.000070   0.000004   0.000055   0.000029  -0.000015  -0.000057
    27  C   -0.000041   0.000001   0.000003  -0.000015   0.000002   0.000033
    28  C    0.000216  -0.000002  -0.000011  -0.000057   0.000033   0.000002
    29  C    0.000899  -0.000077  -0.000155  -0.000059  -0.000011   0.000003
    30  C    0.001900  -0.000030  -0.000059   0.000020  -0.000057  -0.000015
    31  C   -0.027460   0.000074   0.000899   0.001899   0.000214  -0.000041
    32  C    0.000074  -0.000136  -0.000077  -0.000030  -0.000002   0.000001
    33  H   -0.000461  -0.002964   0.000205   0.000027  -0.000000   0.000000
    34  H    0.000055  -0.000359   0.000005  -0.000001   0.000000   0.000000
    35  H    0.387172  -0.000272   0.005950  -0.049681  -0.004241   0.000517
    36  H   -0.000270   0.387207  -0.038366   0.006461  -0.000426   0.000013
    37  H   -0.002966  -0.000461   0.004861  -0.046470   0.394102  -0.038505
    38  H   -0.000360   0.000055   0.000051   0.005868  -0.038508   0.394088
    39  H   -0.000032   0.000031  -0.000457  -0.000036   0.000515  -0.004242
    40  H   -0.000071   0.005342  -0.009990  -0.000114   0.000013  -0.000426
    41  H   -0.000000  -0.000001  -0.000001   0.000000   0.000000   0.000000
    42  H   -0.000000   0.000011  -0.000047  -0.000001   0.000000  -0.000000
    43  H    0.000001   0.000000  -0.000008   0.000015  -0.000040   0.000085
    44  H    0.000000   0.000001   0.000001   0.000000  -0.000000   0.000000
    45  H   -0.000001  -0.000000  -0.000000   0.000000   0.000001   0.000003
    46  H    0.000011  -0.000000   0.000000   0.000000   0.000003   0.000001
    47  H    0.005307  -0.000070   0.000055   0.000649   0.000083  -0.000040
    48  H    0.000031  -0.000032   0.000002   0.000001   0.000000  -0.000000
              13         14         15         16         17         18
     1  C   -0.000085  -0.000026   0.000004  -0.000070   0.000029   0.000055
     2  C   -0.000121  -0.000085   0.000033  -0.000061   0.000055   0.000025
     3  C   -0.000166   0.000015  -0.000002   0.000216  -0.000057  -0.000011
     4  C    0.000046  -0.000001   0.000001  -0.000041  -0.000015   0.000003
     5  C    0.003613   0.000156  -0.000030   0.001900   0.000020  -0.000059
     6  C    0.001003   0.001119  -0.000077   0.000899  -0.000059  -0.000155
     7  C    0.008585   0.001660  -0.000137   0.000074  -0.000030  -0.000077
     8  C   -0.072171   0.005566   0.000074  -0.027463   0.001899   0.000899
     9  C    0.411676  -0.061620   0.008581  -0.072144   0.003616   0.001008
    10  C   -0.061632  -0.031344   0.001653   0.005559   0.000156   0.001121
    11  C   -0.028202  -0.053873   0.000737  -0.000366   0.000102   0.000074
    12  C   -0.045055   0.424648  -0.063240   0.009381   0.000443   0.004611
    13  C    4.878940   0.522436  -0.067144   0.533345  -0.045074  -0.037882
    14  C    0.522436   4.890015   0.485790  -0.070347  -0.029478  -0.045128
    15  C   -0.067144   0.485790   5.139960  -0.038152  -0.070356   0.533148
    16  C    0.533345  -0.070347  -0.038152   5.139593   0.485695  -0.067159
    17  C   -0.045074  -0.029478  -0.070356   0.485695   4.890347   0.522391
    18  C   -0.037882  -0.045128   0.533148  -0.067159   0.522391   4.878974
    19  C    0.000073   0.000102  -0.000367   0.000736  -0.053871  -0.028185
    20  C    0.004614   0.000444   0.009381  -0.063214   0.424613  -0.045057
    21  C    0.001119   0.000156   0.005567   0.001660  -0.031347  -0.061614
    22  C    0.001003   0.003613  -0.072172   0.008585  -0.061628   0.411697
    23  C    0.000899   0.001900  -0.027460   0.000074   0.005560  -0.072144
    24  C   -0.000077  -0.000030   0.000074  -0.000136   0.001653   0.008581
    25  C   -0.000155  -0.000059   0.000899  -0.000077   0.001121   0.001009
    26  C   -0.000059   0.000020   0.001899  -0.000030   0.000156   0.003615
    27  C   -0.000011  -0.000057   0.000214  -0.000002   0.000015  -0.000167
    28  C    0.000003  -0.000015  -0.000041   0.000001  -0.000001   0.000046
    29  C    0.000025   0.000055  -0.000061   0.000033  -0.000085  -0.000121
    30  C    0.000055   0.000029  -0.000070   0.000004  -0.000026  -0.000085
    31  C   -0.000061  -0.000070   0.000034  -0.000021   0.000004   0.000033
    32  C    0.000033   0.000004  -0.000021   0.000034  -0.000070  -0.000061
    33  H   -0.000047  -0.000001  -0.000000   0.000011   0.000000   0.000000
    34  H   -0.000001   0.000000  -0.000000  -0.000001   0.000000  -0.000000
    35  H   -0.000457  -0.000037  -0.000032   0.000031   0.000001   0.000002
    36  H   -0.009975  -0.000116  -0.000070   0.005307   0.000649   0.000055
    37  H    0.000052   0.005866  -0.000359   0.000055  -0.000001   0.000005
    38  H    0.004862  -0.046475  -0.002964  -0.000461   0.000027   0.000205
    39  H    0.005946  -0.049676   0.387205  -0.000270   0.006461  -0.038365
    40  H   -0.038367   0.006463  -0.000272   0.387171  -0.049682   0.005950
    41  H    0.000005  -0.000001   0.000055  -0.000360   0.005868   0.000051
    42  H    0.000204   0.000027  -0.000461  -0.002966  -0.046472   0.004861
    43  H    0.000055   0.000648   0.005342  -0.000071  -0.000114  -0.009990
    44  H    0.000001   0.000001   0.000031  -0.000032  -0.000036  -0.000457
    45  H    0.000000   0.000000   0.000011  -0.000000  -0.000001  -0.000047
    46  H   -0.000000   0.000000  -0.000001  -0.000000   0.000000  -0.000001
    47  H   -0.000008   0.000014   0.000001   0.000000   0.000000   0.000001
    48  H    0.000001   0.000000   0.000000   0.000001   0.000015  -0.000008
              19         20         21         22         23         24
     1  C   -0.000057  -0.000015   0.000020  -0.000059  -0.000030   0.001899
     2  C   -0.000011   0.000003  -0.000059  -0.000155  -0.000077   0.000899
     3  C    0.000002   0.000033  -0.000015   0.000003   0.000001  -0.000041
     4  C    0.000033   0.000002  -0.000057  -0.000011  -0.000002   0.000214
     5  C   -0.000015  -0.000057   0.000029   0.000055   0.000004  -0.000070
     6  C    0.000003  -0.000011   0.000055   0.000025   0.000033  -0.000061
     7  C    0.000001  -0.000002   0.000004   0.000033   0.000034  -0.000021
     8  C   -0.000041   0.000214  -0.000070  -0.000061  -0.000021   0.000034
     9  C    0.000046  -0.000167  -0.000085  -0.000121  -0.000061   0.000033
    10  C   -0.000001   0.000015  -0.000026  -0.000085  -0.000070   0.000004
    11  C   -0.000001   0.000001  -0.000001   0.000046  -0.000041   0.000001
    12  C    0.000001  -0.000012   0.000015  -0.000166   0.000216  -0.000002
    13  C    0.000073   0.004614   0.001119   0.001003   0.000899  -0.000077
    14  C    0.000102   0.000444   0.000156   0.003613   0.001900  -0.000030
    15  C   -0.000367   0.009381   0.005567  -0.072172  -0.027460   0.000074
    16  C    0.000736  -0.063214   0.001660   0.008585   0.000074  -0.000136
    17  C   -0.053871   0.424613  -0.031347  -0.061628   0.005560   0.001653
    18  C   -0.028185  -0.045057  -0.061614   0.411697  -0.072144   0.008581
    19  C    5.041830   0.582387   0.424660  -0.045055   0.009381  -0.063240
    20  C    0.582387   5.041887  -0.053868  -0.028205  -0.000366   0.000737
    21  C    0.424660  -0.053868   4.890001   0.522442  -0.070349   0.485773
    22  C   -0.045055  -0.028205   0.522442   4.878933   0.533326  -0.067142
    23  C    0.009381  -0.000366  -0.070349   0.533326   5.139585  -0.038152
    24  C   -0.063240   0.000737   0.485773  -0.067142  -0.038152   5.139967
    25  C    0.004610   0.000074  -0.045132  -0.037882  -0.067160   0.533162
    26  C    0.000443   0.000102  -0.029478  -0.045073   0.485711  -0.070356
    27  C   -0.000012   0.000001   0.000445   0.004614  -0.063215   0.009380
    28  C    0.000001  -0.000001   0.000102   0.000073   0.000736  -0.000367
    29  C   -0.000166   0.000046   0.003613   0.001003   0.008585  -0.072171
    30  C    0.000015  -0.000001   0.000156   0.001119   0.001660   0.005566
    31  C   -0.000002   0.000001  -0.000030  -0.000077  -0.000137   0.000074
    32  C    0.000216  -0.000041   0.001900   0.000899   0.000074  -0.027463
    33  H    0.000001   0.000003   0.000000  -0.000000  -0.000000  -0.000001
    34  H    0.000003   0.000001   0.000000   0.000000  -0.000000   0.000011
    35  H   -0.000000   0.000000   0.000000   0.000001   0.000001   0.000000
    36  H   -0.000040   0.000083   0.000014  -0.000008   0.000000   0.000001
    37  H    0.000000   0.000000   0.000000  -0.000001  -0.000001  -0.000000
    38  H    0.000000  -0.000000  -0.000001  -0.000047   0.000011  -0.000000
    39  H    0.000013  -0.000426  -0.000116  -0.009977   0.005307  -0.000070
    40  H    0.000517  -0.004241  -0.000037  -0.000457   0.000031  -0.000032
    41  H    0.394089  -0.038508  -0.046476   0.004862  -0.000461  -0.002964
    42  H   -0.038507   0.394103   0.005866   0.000052   0.000055  -0.000359
    43  H   -0.000426   0.000013   0.006463  -0.038366   0.387172  -0.000272
    44  H   -0.004242   0.000515  -0.049676   0.005946  -0.000270   0.387207
    45  H   -0.000000   0.000000   0.000027   0.000204  -0.002966  -0.000461
    46  H    0.000000   0.000000  -0.000001   0.000005  -0.000360   0.000055
    47  H    0.000000  -0.000000   0.000001   0.000001  -0.000032   0.000031
    48  H    0.000085  -0.000040   0.000648   0.000055  -0.000071   0.005342
              25         26         27         28         29         30
     1  C    0.003616   0.000156   0.000102   0.000443  -0.045074  -0.029478
     2  C    0.001008   0.001121   0.000074   0.004611  -0.037882  -0.045128
     3  C    0.000046  -0.000001  -0.000001   0.000001   0.000073   0.000102
     4  C   -0.000167   0.000015   0.000001  -0.000012   0.004614   0.000444
     5  C   -0.000085  -0.000026  -0.000001   0.000015   0.001119   0.000156
     6  C   -0.000121  -0.000085   0.000046  -0.000166   0.001003   0.003613
     7  C   -0.000061  -0.000070  -0.000041   0.000216   0.000899   0.001900
     8  C    0.000033   0.000004   0.000001  -0.000002  -0.000077  -0.000030
     9  C    0.000025   0.000055   0.000003  -0.000011  -0.000155  -0.000059
    10  C    0.000055   0.000029  -0.000015  -0.000057  -0.000059   0.000020
    11  C    0.000003  -0.000015   0.000002   0.000033  -0.000011  -0.000057
    12  C   -0.000011  -0.000057   0.000033   0.000002   0.000003  -0.000015
    13  C   -0.000155  -0.000059  -0.000011   0.000003   0.000025   0.000055
    14  C   -0.000059   0.000020  -0.000057  -0.000015   0.000055   0.000029
    15  C    0.000899   0.001899   0.000214  -0.000041  -0.000061  -0.000070
    16  C   -0.000077  -0.000030  -0.000002   0.000001   0.000033   0.000004
    17  C    0.001121   0.000156   0.000015  -0.000001  -0.000085  -0.000026
    18  C    0.001009   0.003615  -0.000167   0.000046  -0.000121  -0.000085
    19  C    0.004610   0.000443  -0.000012   0.000001  -0.000166   0.000015
    20  C    0.000074   0.000102   0.000001  -0.000001   0.000046  -0.000001
    21  C   -0.045132  -0.029478   0.000445   0.000102   0.003613   0.000156
    22  C   -0.037882  -0.045073   0.004614   0.000073   0.001003   0.001119
    23  C   -0.067160   0.485711  -0.063215   0.000736   0.008585   0.001660
    24  C    0.533162  -0.070356   0.009380  -0.000367  -0.072171   0.005566
    25  C    4.878985   0.522387  -0.045056  -0.028181   0.411676  -0.061620
    26  C    0.522387   4.890377   0.424597  -0.053876  -0.061632  -0.031344
    27  C   -0.045056   0.424597   5.041894   0.582396  -0.028202  -0.053873
    28  C   -0.028181  -0.053876   0.582396   5.041831  -0.045055   0.424648
    29  C    0.411676  -0.061632  -0.028202  -0.045055   4.878940   0.522437
    30  C   -0.061620  -0.031344  -0.053873   0.424648   0.522437   4.890016
    31  C    0.008581   0.001653   0.000737  -0.063240  -0.067144   0.485790
    32  C   -0.072144   0.005559  -0.000366   0.009381   0.533345  -0.070348
    33  H   -0.000001   0.000000   0.000000   0.000000   0.000005  -0.000001
    34  H   -0.000047  -0.000001   0.000000  -0.000000   0.000204   0.000027
    35  H   -0.000008   0.000015  -0.000040   0.000085   0.000055   0.000648
    36  H    0.000001   0.000000  -0.000000   0.000000   0.000001   0.000001
    37  H   -0.000000   0.000000   0.000001   0.000003   0.000000   0.000000
    38  H    0.000000   0.000000   0.000003   0.000001  -0.000000   0.000000
    39  H    0.000055   0.000649   0.000083  -0.000040  -0.000008   0.000014
    40  H    0.000002   0.000001   0.000000  -0.000000   0.000001   0.000000
    41  H    0.000205   0.000027  -0.000000   0.000000  -0.000047  -0.000001
    42  H    0.000005  -0.000001   0.000000   0.000000  -0.000001   0.000000
    43  H    0.005950  -0.049681  -0.004241   0.000517  -0.000457  -0.000037
    44  H   -0.038366   0.006461  -0.000426   0.000013  -0.009975  -0.000116
    45  H    0.004861  -0.046470   0.394102  -0.038505   0.000052   0.005866
    46  H    0.000051   0.005868  -0.038508   0.394088   0.004862  -0.046474
    47  H   -0.000457  -0.000036   0.000515  -0.004242   0.005946  -0.049676
    48  H   -0.009990  -0.000114   0.000013  -0.000426  -0.038367   0.006463
              31         32         33         34         35         36
     1  C   -0.070356   0.485695   0.005868  -0.046472  -0.000114  -0.000036
     2  C    0.533148  -0.067160   0.000051   0.004861  -0.009990  -0.000457
     3  C   -0.000367   0.000736   0.394089  -0.038507  -0.000426  -0.004242
     4  C    0.009381  -0.063214  -0.038508   0.394102   0.000013   0.000515
     5  C    0.005567   0.001660  -0.046476   0.005866   0.006463  -0.049676
     6  C   -0.072172   0.008585   0.004862   0.000052  -0.038366   0.005946
     7  C   -0.027460   0.000074  -0.000461   0.000055   0.387172  -0.000270
     8  C    0.000074  -0.000136  -0.002964  -0.000359  -0.000272   0.387207
     9  C    0.000899  -0.000077   0.000205   0.000005   0.005950  -0.038366
    10  C    0.001899  -0.000030   0.000027  -0.000001  -0.049681   0.006461
    11  C    0.000214  -0.000002  -0.000000   0.000000  -0.004241  -0.000426
    12  C   -0.000041   0.000001   0.000000   0.000000   0.000517   0.000013
    13  C   -0.000061   0.000033  -0.000047  -0.000001  -0.000457  -0.009975
    14  C   -0.000070   0.000004  -0.000001   0.000000  -0.000037  -0.000116
    15  C    0.000034  -0.000021  -0.000000  -0.000000  -0.000032  -0.000070
    16  C   -0.000021   0.000034   0.000011  -0.000001   0.000031   0.005307
    17  C    0.000004  -0.000070   0.000000   0.000000   0.000001   0.000649
    18  C    0.000033  -0.000061   0.000000  -0.000000   0.000002   0.000055
    19  C   -0.000002   0.000216   0.000001   0.000003  -0.000000  -0.000040
    20  C    0.000001  -0.000041   0.000003   0.000001   0.000000   0.000083
    21  C   -0.000030   0.001900   0.000000   0.000000   0.000000   0.000014
    22  C   -0.000077   0.000899  -0.000000   0.000000   0.000001  -0.000008
    23  C   -0.000137   0.000074  -0.000000  -0.000000   0.000001   0.000000
    24  C    0.000074  -0.027463  -0.000001   0.000011   0.000000   0.000001
    25  C    0.008581  -0.072144  -0.000001  -0.000047  -0.000008   0.000001
    26  C    0.001653   0.005559   0.000000  -0.000001   0.000015   0.000000
    27  C    0.000737  -0.000366   0.000000   0.000000  -0.000040  -0.000000
    28  C   -0.063240   0.009381   0.000000  -0.000000   0.000085   0.000000
    29  C   -0.067144   0.533345   0.000005   0.000204   0.000055   0.000001
    30  C    0.485790  -0.070348  -0.000001   0.000027   0.000648   0.000001
    31  C    5.139960  -0.038152   0.000055  -0.000461   0.005342   0.000031
    32  C   -0.038152   5.139593  -0.000360  -0.002966  -0.000071  -0.000032
    33  H    0.000055  -0.000360   0.487964  -0.007844   0.000020   0.003854
    34  H   -0.000461  -0.002966  -0.007844   0.487939  -0.000001  -0.000085
    35  H    0.005342  -0.000071   0.000020  -0.000001   0.494161   0.000087
    36  H    0.000031  -0.000032   0.003854  -0.000085   0.000087   0.494113
    37  H    0.000011  -0.000000   0.000000  -0.000000   0.003850   0.000020
    38  H   -0.000001  -0.000000  -0.000000   0.000000  -0.000085  -0.000001
    39  H    0.000001   0.000000   0.000000   0.000000   0.000002   0.000000
    40  H    0.000000   0.000001   0.000031   0.000002   0.000000   0.002873
    41  H   -0.000000   0.000011   0.000000   0.000001   0.000000   0.000002
    42  H   -0.000000  -0.000001   0.000001   0.000000   0.000000   0.000031
    43  H   -0.000032   0.000031   0.000000   0.000000  -0.000000   0.000000
    44  H   -0.000070   0.005307   0.000002   0.000031   0.000000  -0.000000
    45  H   -0.000359   0.000055   0.000000  -0.000000   0.000002   0.000000
    46  H   -0.002964  -0.000461  -0.000000   0.000000   0.000031   0.000000
    47  H    0.387205  -0.000270  -0.000001   0.000020   0.002873   0.000000
    48  H   -0.000272   0.387171  -0.000085   0.003851   0.000000   0.000002
              37         38         39         40         41         42
     1  C   -0.000001   0.000000   0.000000   0.000015   0.000000   0.000000
     2  C   -0.000047  -0.000001   0.000001  -0.000008   0.000000  -0.000000
     3  C   -0.000000   0.000000   0.000000   0.000085   0.000001   0.000003
     4  C    0.000000   0.000000  -0.000000  -0.000040   0.000003   0.000001
     5  C    0.000027  -0.000001   0.000001   0.000648   0.000000   0.000000
     6  C    0.000204   0.000005   0.000001   0.000055  -0.000000   0.000000
     7  C   -0.002966  -0.000360  -0.000032  -0.000071  -0.000000  -0.000000
     8  C   -0.000461   0.000055   0.000031   0.005342  -0.000001   0.000011
     9  C    0.004861   0.000051  -0.000457  -0.009990  -0.000001  -0.000047
    10  C   -0.046470   0.005868  -0.000036  -0.000114   0.000000  -0.000001
    11  C    0.394102  -0.038508   0.000515   0.000013   0.000000   0.000000
    12  C   -0.038505   0.394088  -0.004242  -0.000426   0.000000  -0.000000
    13  C    0.000052   0.004862   0.005946  -0.038367   0.000005   0.000204
    14  C    0.005866  -0.046475  -0.049676   0.006463  -0.000001   0.000027
    15  C   -0.000359  -0.002964   0.387205  -0.000272   0.000055  -0.000461
    16  C    0.000055  -0.000461  -0.000270   0.387171  -0.000360  -0.002966
    17  C   -0.000001   0.000027   0.006461  -0.049682   0.005868  -0.046472
    18  C    0.000005   0.000205  -0.038365   0.005950   0.000051   0.004861
    19  C    0.000000   0.000000   0.000013   0.000517   0.394089  -0.038507
    20  C    0.000000  -0.000000  -0.000426  -0.004241  -0.038508   0.394103
    21  C    0.000000  -0.000001  -0.000116  -0.000037  -0.046476   0.005866
    22  C   -0.000001  -0.000047  -0.009977  -0.000457   0.004862   0.000052
    23  C   -0.000001   0.000011   0.005307   0.000031  -0.000461   0.000055
    24  C   -0.000000  -0.000000  -0.000070  -0.000032  -0.002964  -0.000359
    25  C   -0.000000   0.000000   0.000055   0.000002   0.000205   0.000005
    26  C    0.000000   0.000000   0.000649   0.000001   0.000027  -0.000001
    27  C    0.000001   0.000003   0.000083   0.000000  -0.000000   0.000000
    28  C    0.000003   0.000001  -0.000040  -0.000000   0.000000   0.000000
    29  C    0.000000  -0.000000  -0.000008   0.000001  -0.000047  -0.000001
    30  C    0.000000   0.000000   0.000014   0.000000  -0.000001   0.000000
    31  C    0.000011  -0.000001   0.000001   0.000000  -0.000000  -0.000000
    32  C   -0.000000  -0.000000   0.000000   0.000001   0.000011  -0.000001
    33  H    0.000000  -0.000000   0.000000   0.000031   0.000000   0.000001
    34  H   -0.000000   0.000000   0.000000   0.000002   0.000001   0.000000
    35  H    0.003850  -0.000085   0.000002   0.000000   0.000000   0.000000
    36  H    0.000020  -0.000001   0.000000   0.002873   0.000002   0.000031
    37  H    0.487932  -0.007844  -0.000085  -0.000001   0.000000  -0.000000
    38  H   -0.007844   0.487961   0.003853   0.000020  -0.000000   0.000000
    39  H   -0.000085   0.003853   0.494115   0.000087  -0.000001   0.000020
    40  H   -0.000001   0.000020   0.000087   0.494164  -0.000085   0.003851
    41  H    0.000000  -0.000000  -0.000001  -0.000085   0.487964  -0.007844
    42  H   -0.000000   0.000000   0.000020   0.003851  -0.007844   0.487939
    43  H    0.000002   0.000031   0.002873   0.000000   0.000020  -0.000001
    44  H    0.000000   0.000000   0.000000   0.000002   0.003854  -0.000085
    45  H    0.000000   0.000001   0.000031   0.000000   0.000000  -0.000000
    46  H    0.000001   0.000000   0.000002   0.000000  -0.000000   0.000000
    47  H    0.000031   0.000002  -0.000000   0.000000   0.000000   0.000000
    48  H    0.000000   0.000000   0.000000  -0.000000   0.000031   0.000002
              43         44         45         46         47         48
     1  C    0.000001   0.000649  -0.000001   0.000027   0.006461  -0.049682
     2  C    0.000002   0.000055   0.000005   0.000205  -0.038365   0.005950
     3  C   -0.000000  -0.000040   0.000000   0.000000   0.000013   0.000517
     4  C    0.000000   0.000083   0.000000  -0.000000  -0.000426  -0.004241
     5  C    0.000000   0.000014   0.000000  -0.000001  -0.000116  -0.000037
     6  C    0.000001  -0.000008  -0.000001  -0.000047  -0.009977  -0.000457
     7  C    0.000001   0.000000  -0.000001   0.000011   0.005307   0.000031
     8  C    0.000000   0.000001  -0.000000  -0.000000  -0.000070  -0.000032
     9  C   -0.000008   0.000001  -0.000000   0.000000   0.000055   0.000002
    10  C    0.000015   0.000000   0.000000   0.000000   0.000649   0.000001
    11  C   -0.000040  -0.000000   0.000001   0.000003   0.000083   0.000000
    12  C    0.000085   0.000000   0.000003   0.000001  -0.000040  -0.000000
    13  C    0.000055   0.000001   0.000000  -0.000000  -0.000008   0.000001
    14  C    0.000648   0.000001   0.000000   0.000000   0.000014   0.000000
    15  C    0.005342   0.000031   0.000011  -0.000001   0.000001   0.000000
    16  C   -0.000071  -0.000032  -0.000000  -0.000000   0.000000   0.000001
    17  C   -0.000114  -0.000036  -0.000001   0.000000   0.000000   0.000015
    18  C   -0.009990  -0.000457  -0.000047  -0.000001   0.000001  -0.000008
    19  C   -0.000426  -0.004242  -0.000000   0.000000   0.000000   0.000085
    20  C    0.000013   0.000515   0.000000   0.000000  -0.000000  -0.000040
    21  C    0.006463  -0.049676   0.000027  -0.000001   0.000001   0.000648
    22  C   -0.038366   0.005946   0.000204   0.000005   0.000001   0.000055
    23  C    0.387172  -0.000270  -0.002966  -0.000360  -0.000032  -0.000071
    24  C   -0.000272   0.387207  -0.000461   0.000055   0.000031   0.005342
    25  C    0.005950  -0.038366   0.004861   0.000051  -0.000457  -0.009990
    26  C   -0.049681   0.006461  -0.046470   0.005868  -0.000036  -0.000114
    27  C   -0.004241  -0.000426   0.394102  -0.038508   0.000515   0.000013
    28  C    0.000517   0.000013  -0.038505   0.394088  -0.004242  -0.000426
    29  C   -0.000457  -0.009975   0.000052   0.004862   0.005946  -0.038367
    30  C   -0.000037  -0.000116   0.005866  -0.046474  -0.049676   0.006463
    31  C   -0.000032  -0.000070  -0.000359  -0.002964   0.387205  -0.000272
    32  C    0.000031   0.005307   0.000055  -0.000461  -0.000270   0.387171
    33  H    0.000000   0.000002   0.000000  -0.000000  -0.000001  -0.000085
    34  H    0.000000   0.000031  -0.000000   0.000000   0.000020   0.003851
    35  H   -0.000000   0.000000   0.000002   0.000031   0.002873   0.000000
    36  H    0.000000  -0.000000   0.000000   0.000000   0.000000   0.000002
    37  H    0.000002   0.000000   0.000000   0.000001   0.000031   0.000000
    38  H    0.000031   0.000000   0.000001   0.000000   0.000002   0.000000
    39  H    0.002873   0.000000   0.000031   0.000002  -0.000000   0.000000
    40  H    0.000000   0.000002   0.000000   0.000000   0.000000  -0.000000
    41  H    0.000020   0.003854   0.000000  -0.000000   0.000000   0.000031
    42  H   -0.000001  -0.000085  -0.000000   0.000000   0.000000   0.000002
    43  H    0.494161   0.000087   0.003850  -0.000085   0.000002   0.000000
    44  H    0.000087   0.494113   0.000020  -0.000001   0.000000   0.002873
    45  H    0.003850   0.000020   0.487933  -0.007844  -0.000085  -0.000001
    46  H   -0.000085  -0.000001  -0.007844   0.487961   0.003853   0.000020
    47  H    0.000002   0.000000  -0.000085   0.003853   0.494115   0.000087
    48  H    0.000000   0.002873  -0.000001   0.000020   0.000087   0.494164
 Mulliken charges:
               1
     1  C    0.037512
     2  C    0.028357
     3  C   -0.225008
     4  C   -0.225041
     5  C    0.037706
     6  C    0.028153
     7  C   -0.236914
     8  C   -0.237211
     9  C    0.028362
    10  C    0.037490
    11  C   -0.225037
    12  C   -0.225005
    13  C    0.028157
    14  C    0.037692
    15  C   -0.237206
    16  C   -0.236919
    17  C    0.037512
    18  C    0.028356
    19  C   -0.225008
    20  C   -0.225041
    21  C    0.037706
    22  C    0.028153
    23  C   -0.236914
    24  C   -0.237211
    25  C    0.028362
    26  C    0.037489
    27  C   -0.225037
    28  C   -0.225005
    29  C    0.028157
    30  C    0.037692
    31  C   -0.237206
    32  C   -0.236919
    33  H    0.199703
    34  H    0.199717
    35  H    0.196499
    36  H    0.196535
    37  H    0.199721
    38  H    0.199705
    39  H    0.196535
    40  H    0.196498
    41  H    0.199702
    42  H    0.199717
    43  H    0.196500
    44  H    0.196535
    45  H    0.199721
    46  H    0.199705
    47  H    0.196535
    48  H    0.196498
 Sum of Mulliken charges =  -0.00000
 Mulliken charges with hydrogens summed into heavy atoms:
               1
     1  C    0.037512
     2  C    0.028357
     3  C   -0.025306
     4  C   -0.025324
     5  C    0.037706
     6  C    0.028153
     7  C   -0.040415
     8  C   -0.040676
     9  C    0.028362
    10  C    0.037490
    11  C   -0.025316
    12  C   -0.025300
    13  C    0.028157
    14  C    0.037692
    15  C   -0.040672
    16  C   -0.040421
    17  C    0.037512
    18  C    0.028356
    19  C   -0.025306
    20  C   -0.025324
    21  C    0.037706
    22  C    0.028153
    23  C   -0.040414
    24  C   -0.040676
    25  C    0.028362
    26  C    0.037489
    27  C   -0.025316
    28  C   -0.025300
    29  C    0.028157
    30  C    0.037692
    31  C   -0.040672
    32  C   -0.040421
 Electronic spatial extent (au):  <R**2>=           8341.6665
 Charge=             -0.0000 electrons
 Dipole moment (field-independent basis, Debye):
    X=             -0.0000    Y=              0.0000    Z=              0.0000  Tot=              0.0000
 Quadrupole moment (field-independent basis, Debye-Ang):
   XX=           -193.1287   YY=           -193.1276   ZZ=           -155.1134
   XY=              0.0002   XZ=              0.0000   YZ=             -0.0000
 Traceless Quadrupole moment (field-independent basis, Debye-Ang):
   XX=            -12.6721   YY=            -12.6711   ZZ=             25.3432
   XY=              0.0002   XZ=              0.0000   YZ=             -0.0000
 Octapole moment (field-independent basis, Debye-Ang**2):
  XXX=             -0.0000  YYY=              0.0002  ZZZ=             25.0219  XYY=             -0.0000
  XXY=              0.0001  XXZ=             25.1949  XZZ=              0.0000  YZZ=              0.0001
  YYZ=             -4.4173  XYZ=             -1.0172
 Hexadecapole moment (field-independent basis, Debye-Ang**3):
 XXXX=          -4927.9483 YYYY=          -4928.1928 ZZZZ=          -2624.0840 XXXY=              1.0150
 XXXZ=             -0.0000 YYYX=             -1.0369 YYYZ=              0.0001 ZZZX=              0.0000
 ZZZY=             -0.0000 XXYY=          -1632.0486 XXZZ=          -1141.4100 YYZZ=          -1138.2410
 XXYZ=             -0.0001 YYXZ=              0.0000 ZZXY=              0.1088
 N-N= 3.035121246627D+03 E-N=-8.921816630909D+03  KE= 1.223735548337D+03
 1\1\GINC-CU13\SP\RB3LYP\6-311G(d)\C32H16\WANG\17-Jun-2025\0\\# B3LYP/6
 -311G* NOSYMM\\From 4_4-CNB_opt.out\\0,1\C,0,2.381165,-1.455716,-1.238
 891\C,0,2.695802,-0.832078,0.007719\C,0,2.794951,0.584446,-2.468755\C,
 0,2.749778,-0.768612,-2.468958\C,0,2.472928,1.294294,-1.238549\C,0,2.7
 44777,0.650578,0.008008\C,0,2.451983,1.391342,1.167059\C,0,1.55218,2.3
 54751,-1.2742\C,0,0.832098,2.695897,-0.115274\C,0,1.455713,2.381216,1.
 131331\C,0,0.768617,2.749897,2.361417\C,0,-0.584432,2.79506,2.361212\C
 ,0,-0.650589,2.744865,-0.115556\C,0,-1.294275,2.47297,1.131009\C,0,-2.
 35467,1.552169,1.166651\C,0,-1.391328,2.452041,-1.274598\C,0,-2.381165
 ,1.455715,-1.238892\C,0,-2.695802,0.832077,0.007719\C,0,-2.794951,-0.5
 84446,-2.468755\C,0,-2.749777,0.768611,-2.468959\C,0,-2.472928,-1.2942
 95,-1.238549\C,0,-2.744777,-0.650578,0.008008\C,0,-2.451983,-1.391342,
 1.167059\C,0,-1.55218,-2.354751,-1.2742\C,0,-0.832098,-2.695898,-0.115
 274\C,0,-1.455714,-2.381216,1.131331\C,0,-0.768617,-2.749897,2.361417\
 C,0,0.584431,-2.79506,2.361213\C,0,0.650589,-2.744866,-0.115556\C,0,1.
 294275,-2.472971,1.131009\C,0,2.35467,-1.552169,1.166651\C,0,1.391328,
 -2.452042,-1.274597\H,0,2.910827,1.145251,-3.392996\H,0,2.827963,-1.33
 5623,-3.393367\H,0,2.74245,1.015935,2.144449\H,0,1.19764,2.670504,-2.2
 51555\H,0,1.335661,2.828182,3.285794\H,0,-1.145248,2.911036,3.285435\H
 ,0,-2.670412,1.19761,2.144004\H,0,-1.015918,2.742515,-2.251985\H,0,-2.
 910826,-1.145252,-3.392996\H,0,-2.827963,1.335622,-3.393367\H,0,-2.742
 45,-1.015936,2.144448\H,0,-1.19764,-2.670505,-2.251555\H,0,-1.335662,-
 2.828182,3.285794\H,0,1.145247,-2.911036,3.285436\H,0,2.670412,-1.1976
 1,2.144004\H,0,1.015918,-2.742516,-2.251985\\Version=ES64L-G16RevB.01\
 HF=-1229.1082615\RMSD=4.283e-09\Dipole=-0.0000008,0.0000009,0.0000158\
 Quadrupole=-9.4214205,-9.4206338,18.8420543,0.0001197,0.,-0.0000024\PG
 =C01 [X(C32H16)]\\@


 HE THAT RISETH LATE MUST TROT ALL DAY.

                  -- BENJAMIN FRANKLIN
 Job cpu time:       0 days  0 hours 27 minutes 25.0 seconds.
 Elapsed time:       0 days  0 hours  0 minutes 59.3 seconds.
 File lengths (MBytes):  RWF=    214 Int=      0 D2E=      0 Chk=     24 Scr=      1
 Normal termination of Gaussian 16 at Tue Jun 17 13:23:40 2025.
