 Entering Gaussian System, Link 0=g16
 Initial command:
 /opt/software/g16/l1.exe "/tmp/6_6-CNB-3476.tmp/Gau-43903.inp" -scrdir="/tmp/6_6-CNB-3476.tmp/"
 Entering Link 1 = /opt/software/g16/l1.exe PID=     43904.
  
 Copyright (c) 1988-2017, Gaussian, Inc.  All Rights Reserved.
  
 This is part of the Gaussian(R) 16 program.  It is based on
 the Gaussian(R) 09 system (copyright 2009, Gaussian, Inc.),
 the Gaussian(R) 03 system (copyright 2003, Gaussian, Inc.),
 the Gaussian(R) 98 system (copyright 1998, Gaussian, Inc.),
 the Gaussian(R) 94 system (copyright 1995, Gaussian, Inc.),
 the Gaussian 92(TM) system (copyright 1992, Gaussian, Inc.),
 the Gaussian 90(TM) system (copyright 1990, Gaussian, Inc.),
 the Gaussian 88(TM) system (copyright 1988, Gaussian, Inc.),
 the Gaussian 86(TM) system (copyright 1986, Carnegie Mellon
 University), and the Gaussian 82(TM) system (copyright 1983,
 Carnegie Mellon University). Gaussian is a federally registered
 trademark of Gaussian, Inc.
  
 This software contains proprietary and confidential information,
 including trade secrets, belonging to Gaussian, Inc.
  
 This software is provided under written license and may be
 used, copied, transmitted, or stored only in accord with that
 written license.
  
 The following legend is applicable only to US Government
 contracts under FAR:
  
                    RESTRICTED RIGHTS LEGEND
  
 Use, reproduction and disclosure by the US Government is
 subject to restrictions as set forth in subparagraphs (a)
 and (c) of the Commercial Computer Software - Restricted
 Rights clause in FAR 52.227-19.
  
 Gaussian, Inc.
 340 Quinnipiac St., Bldg. 40, Wallingford CT 06492
  
  
 ---------------------------------------------------------------
 Warning -- This program may not be used in any manner that
 competes with the business of Gaussian, Inc. or will provide
 assistance to any competitor of Gaussian, Inc.  The licensee
 of this program is prohibited from giving any competitor of
 Gaussian, Inc. access to this program.  By using this program,
 the user acknowledges that Gaussian, Inc. is engaged in the
 business of creating and licensing software in the field of
 computational chemistry and represents and warrants to the
 licensee that it is not a competitor of Gaussian, Inc. and that
 it will not use this program in any manner prohibited above.
 ---------------------------------------------------------------
  

 Cite this work as:
 Gaussian 16, Revision B.01,
 M. J. Frisch, G. W. Trucks, H. B. Schlegel, G. E. Scuseria, 
 M. A. Robb, J. R. Cheeseman, G. Scalmani, V. Barone, 
 G. A. Petersson, H. Nakatsuji, X. Li, M. Caricato, A. V. Marenich, 
 J. Bloino, B. G. Janesko, R. Gomperts, B. Mennucci, H. P. Hratchian, 
 J. V. Ortiz, A. F. Izmaylov, J. L. Sonnenberg, D. Williams-Young, 
 F. Ding, F. Lipparini, F. Egidi, J. Goings, B. Peng, A. Petrone, 
 T. Henderson, D. Ranasinghe, V. G. Zakrzewski, J. Gao, N. Rega, 
 G. Zheng, W. Liang, M. Hada, M. Ehara, K. Toyota, R. Fukuda, 
 J. Hasegawa, M. Ishida, T. Nakajima, Y. Honda, O. Kitao, H. Nakai, 
 T. Vreven, K. Throssell, J. A. Montgomery, Jr., J. E. Peralta, 
 F. Ogliaro, M. J. Bearpark, J. J. Heyd, E. N. Brothers, K. N. Kudin, 
 V. N. Staroverov, T. A. Keith, R. Kobayashi, J. Normand, 
 K. Raghavachari, A. P. Rendell, J. C. Burant, S. S. Iyengar, 
 J. Tomasi, M. Cossi, J. M. Millam, M. Klene, C. Adamo, R. Cammi, 
 J. W. Ochterski, R. L. Martin, K. Morokuma, O. Farkas, 
 J. B. Foresman, and D. J. Fox, Gaussian, Inc., Wallingford CT, 2016.
 
 ******************************************
 Gaussian 16:  ES64L-G16RevB.01 20-Dec-2017
                27-Apr-2025 
 ******************************************
 %nproc=18
 Will use up to   18 processors via shared memory.
 ----------------------
 # B3LYP/6-311G* NOSYMM
 ----------------------
 1/38=1,172=1/1;
 2/12=2,15=1,17=6,18=5,40=1/2;
 3/5=4,6=6,7=1,11=2,25=1,30=1,74=-5/1,2,3;
 4//1;
 5/5=2,38=5/2;
 6/7=2,8=2,9=2,10=2,28=1/1;
 99/5=1,9=1/99;
 --------------------
 From 6_6-CNB_opt.out
 --------------------
 Symbolic Z-matrix:
 Charge =  0 Multiplicity = 1
 6                     3.87127  -1.51333  -1.23213 
 6                     4.08298  -0.84933   0.01852 
 6                     4.17173   0.56109  -2.46044 
 6                     4.13358  -0.79423  -2.46042 
 6                     3.95041   1.29386  -1.23215 
 6                     4.12445   0.61898   0.01851 
 6                     3.94661   1.38173   1.18185 
 6                     3.31806   2.5447   -1.2603 
 6                     2.77762   3.11157  -0.09694 
 6                     3.24685   2.59618   1.1537 
 6                     2.75512   3.18284   2.38199 
 6                     1.60026   3.89324   2.38198 
 6                     1.52646   3.8812   -0.09696 
 6                     0.85494   4.06767   1.1537 
 6                    -0.54451   4.14512   1.18189 
 6                     0.77687   4.10814  -1.26029 
 6                    -0.62473   4.10917  -1.2321 
 6                    -1.30567   3.96051   0.01855 
 6                    -2.57144   3.33207  -2.46042 
 6                    -1.37863   3.97672  -2.4604 
 6                    -3.09532   2.77393  -1.23215 
 6                    -2.5979    3.2621    0.01852 
 6                    -3.16953   2.72662   1.18184 
 6                    -3.8623    1.6008   -1.26033 
 6                    -4.08298   0.84933  -0.097 
 6                    -3.87127   1.51333   1.15365 
 6                    -4.13358   0.79423   2.38195 
 6                    -4.17173  -0.56109   2.38196 
 6                    -4.12445  -0.61898  -0.09698 
 6                    -3.95041  -1.29386   1.15367 
 6                    -3.31805  -2.5447    1.18182 
 6                    -3.9466   -1.38172  -1.26032 
 6                    -3.24684  -2.59618  -1.23218 
 6                    -2.77761  -3.11157   0.01847 
 6                    -1.60026  -3.89325  -2.46045 
 6                    -2.75512  -3.18284  -2.46046 
 6                    -0.85494  -4.06767  -1.23217 
 6                    -1.52646  -3.8812    0.01848 
 6                    -0.77687  -4.10814   1.18182 
 6                     0.54451  -4.14512  -1.26036 
 6                     1.30567  -3.96051  -0.09702 
 6                     0.62473  -4.10917   1.15362 
 6                     1.37863  -3.97672   2.38192 
 6                     2.57143  -3.33206   2.38195 
 6                     2.5979   -3.2621   -0.097 
 6                     3.09532  -2.77393   1.15367 
 6                     3.8623   -1.60079   1.18186 
 6                     3.16953  -2.72662  -1.26031 
 1                     4.24374   1.11581  -3.39288 
 1                     4.17427  -1.35215  -3.39285 
 1                     4.15387   0.94776   2.15585 
 1                     3.0686    2.95588  -2.23429 
 1                     3.25867   2.93925   3.31444 
 1                     1.15578   4.23286   3.31442 
 1                    -1.02527   4.13467   2.15591 
 1                     1.25631   4.07068  -2.23429 
 1                    -3.08782   3.11706  -3.39287 
 1                    -0.91582   4.29092  -3.39283 
 1                    -2.89751   3.12317   2.15586 
 1                    -4.09372   1.17926  -2.23434 
 1                    -4.17427   1.35215   3.31438 
 1                    -4.24374  -1.11581   3.31441 
 1                    -3.0686   -2.95588   2.15582 
 1                    -4.15386  -0.94775  -2.23432 
 1                    -1.15578  -4.23287  -3.39289 
 1                    -3.25867  -2.93925  -3.39291 
 1                    -1.25631  -4.07069   2.15582 
 1                     1.02527  -4.13468  -2.23438 
 1                     0.91582  -4.29092   3.31436 
 1                     3.08782  -3.11705   3.3144 
 1                     4.09371  -1.17925   2.15587 
 1                     2.8975   -3.12316  -2.23433 
 
 Symmetry turned off by external request.
 Stoichiometry    C48H24
 Framework group  C1[X(C48H24)]
 Deg. of freedom   210
 Full point group                 C1      NOp   1
                          Input orientation:                          
 ---------------------------------------------------------------------
 Center     Atomic      Atomic             Coordinates (Angstroms)
 Number     Number       Type             X           Y           Z
 ---------------------------------------------------------------------
      1          6           0        3.871266   -1.513330   -1.232128
      2          6           0        4.082981   -0.849326    0.018522
      3          6           0        4.171731    0.561094   -2.460435
      4          6           0        4.133581   -0.794225   -2.460423
      5          6           0        3.950413    1.293863   -1.232145
      6          6           0        4.124453    0.618981    0.018511
      7          6           0        3.946607    1.381726    1.181849
      8          6           0        3.318055    2.544702   -1.260298
      9          6           0        2.777616    3.111570   -0.096942
     10          6           0        3.246848    2.596178    1.153700
     11          6           0        2.755119    3.182838    2.381988
     12          6           0        1.600262    3.893243    2.381975
     13          6           0        1.526464    3.881197   -0.096955
     14          6           0        0.854944    4.067667    1.153696
     15          6           0       -0.544514    4.145119    1.181888
     16          6           0        0.776867    4.108138   -1.260291
     17          6           0       -0.624732    4.109166   -1.232100
     18          6           0       -1.305668    3.960505    0.018550
     19          6           0       -2.571437    3.332065   -2.460420
     20          6           0       -1.378634    3.976718   -2.460398
     21          6           0       -3.095325    2.773929   -1.232148
     22          6           0       -2.597903    3.262099    0.018522
     23          6           0       -3.169533    2.726621    1.181839
     24          6           0       -3.862302    1.600795   -1.260331
     25          6           0       -4.082983    0.849325   -0.096996
     26          6           0       -3.871270    1.513331    1.153652
     27          6           0       -4.133580    0.794227    2.381948
     28          6           0       -4.171726   -0.561093    2.381961
     29          6           0       -4.124451   -0.618981   -0.096984
     30          6           0       -3.950412   -1.293862    1.153672
     31          6           0       -3.318050   -2.544700    1.181823
     32          6           0       -3.946602   -1.381724   -1.260324
     33          6           0       -3.246845   -2.596176   -1.232176
     34          6           0       -2.777614   -3.111568    0.018467
     35          6           0       -1.600262   -3.893248   -2.460449
     36          6           0       -2.755118   -3.182839   -2.460463
     37          6           0       -0.854943   -4.067668   -1.232170
     38          6           0       -1.526464   -3.881198    0.018481
     39          6           0       -0.776867   -4.108144    1.181816
     40          6           0        0.544514   -4.145124   -1.260363
     41          6           0        1.305670   -3.960507   -0.097024
     42          6           0        0.624733   -4.109170    1.153624
     43          6           0        1.378633   -3.976719    2.381923
     44          6           0        2.571434   -3.332063    2.381946
     45          6           0        2.597902   -3.262098   -0.096995
     46          6           0        3.095324   -2.773929    1.153674
     47          6           0        3.862299   -1.600793    1.181856
     48          6           0        3.169530   -2.726617   -1.260314
     49          1           0        4.243744    1.115812   -3.392880
     50          1           0        4.174268   -1.352150   -3.392849
     51          1           0        4.153872    0.947758    2.155845
     52          1           0        3.068605    2.955882   -2.234295
     53          1           0        3.258669    2.939248    3.314435
     54          1           0        1.155777    4.232864    3.314415
     55          1           0       -1.025273    4.134671    2.155906
     56          1           0        1.256310    4.070679   -2.234293
     57          1           0       -3.087823    3.117058   -3.392873
     58          1           0       -0.915820    4.290923   -3.392832
     59          1           0       -2.897508    3.123166    2.155859
     60          1           0       -4.093716    1.179255   -2.234343
     61          1           0       -4.174266    1.352152    3.314375
     62          1           0       -4.243735   -1.115810    3.314408
     63          1           0       -3.068598   -2.955878    2.155820
     64          1           0       -4.153862   -0.947752   -2.234319
     65          1           0       -1.155778   -4.232872   -3.392887
     66          1           0       -3.258667   -2.939251   -3.392910
     67          1           0       -1.256309   -4.070691    2.155819
     68          1           0        1.025274   -4.134678   -2.234382
     69          1           0        0.915818   -4.290923    3.314357
     70          1           0        3.087816   -3.117052    3.314401
     71          1           0        4.093710   -1.179252    2.155868
     72          1           0        2.897499   -3.123161   -2.234332
 ---------------------------------------------------------------------
 Rotational constants (GHZ):           0.0752651           0.0752494           0.0480691
 Standard basis: 6-311G(d) (5D, 7F)
   936 basis functions,  1656 primitive gaussians,   984 cartesian basis functions
   156 alpha electrons      156 beta electrons
       nuclear repulsion energy      5408.9524319188 Hartrees.
 NAtoms=   72 NActive=   72 NUniq=   72 SFac= 1.00D+00 NAtFMM=   60 NAOKFM=T Big=T
 Integral buffers will be    131072 words long.
 Raffenetti 2 integral format.
 Two-electron integral symmetry is turned off.
 One-electron integrals computed using PRISM.
 NBasis=   936 RedAO= T EigKep=  6.29D-05  NBF=   936
 NBsUse=   936 1.00D-06 EigRej= -1.00D+00 NBFU=   936
 ExpMin= 1.03D-01 ExpMax= 4.56D+03 ExpMxC= 6.82D+02 IAcc=3 IRadAn=         5 AccDes= 0.00D+00
 Harris functional with IExCor=  402 and IRadAn=       5 diagonalized for initial guess.
 HarFok:  IExCor=  402 AccDes= 0.00D+00 IRadAn=         5 IDoV= 1 UseB2=F ITyADJ=14
 ICtDFT=  3500011 ScaDFX=  1.000000  1.000000  1.000000  1.000000
 FoFCou: FMM=F IPFlag=           0 FMFlag=      100000 FMFlg1=        2001
         NFxFlg=           0 DoJE=T BraDBF=F KetDBF=T FulRan=T
         wScrn=  0.000000 ICntrl=       500 IOpCl=  0 I1Cent=   200000004 NGrid=           0
         NMat0=    1 NMatS0=      1 NMatT0=    0 NMatD0=    1 NMtDS0=    0 NMtDT0=    0
 Symmetry not used in FoFCou.
 Requested convergence on RMS density matrix=1.00D-08 within 128 cycles.
 Requested convergence on MAX density matrix=1.00D-06.
 Requested convergence on             energy=1.00D-06.
 No special actions if energy rises.
 Integral accuracy reduced to 1.0D-05 until final iterations.
 Initial convergence to 1.0D-05 achieved.  Increase integral accuracy.
 SCF Done:  E(RB3LYP) =  -1843.89262382     A.U. after   13 cycles
            NFock= 13  Conv=0.65D-08     -V/T= 2.0044

 **********************************************************************

            Population analysis using the SCF Density.

 **********************************************************************

 Alpha  occ. eigenvalues --  -10.19557 -10.19557 -10.19557 -10.19556 -10.19556
 Alpha  occ. eigenvalues --  -10.19555 -10.19526 -10.19526 -10.19526 -10.19525
 Alpha  occ. eigenvalues --  -10.19525 -10.19524 -10.19254 -10.19254 -10.19253
 Alpha  occ. eigenvalues --  -10.19253 -10.19253 -10.19253 -10.19252 -10.19252
 Alpha  occ. eigenvalues --  -10.19252 -10.19251 -10.19251 -10.19251 -10.18379
 Alpha  occ. eigenvalues --  -10.18379 -10.18379 -10.18379 -10.18379 -10.18378
 Alpha  occ. eigenvalues --  -10.18378 -10.18378 -10.18378 -10.18377 -10.18377
 Alpha  occ. eigenvalues --  -10.18377 -10.18322 -10.18322 -10.18322 -10.18322
 Alpha  occ. eigenvalues --  -10.18322 -10.18321 -10.18252 -10.18252 -10.18252
 Alpha  occ. eigenvalues --  -10.18252 -10.18252 -10.18252  -0.90481  -0.89867
 Alpha  occ. eigenvalues --   -0.89867  -0.88083  -0.88082  -0.85563  -0.85197
 Alpha  occ. eigenvalues --   -0.82695  -0.82695  -0.80607  -0.80607  -0.80288
 Alpha  occ. eigenvalues --   -0.78881  -0.78697  -0.78697  -0.77166  -0.75185
 Alpha  occ. eigenvalues --   -0.75185  -0.74317  -0.74317  -0.72257  -0.72257
 Alpha  occ. eigenvalues --   -0.70622  -0.70370  -0.67198  -0.65508  -0.64051
 Alpha  occ. eigenvalues --   -0.64051  -0.64021  -0.64021  -0.62556  -0.61420
 Alpha  occ. eigenvalues --   -0.61420  -0.59958  -0.59958  -0.57931  -0.57648
 Alpha  occ. eigenvalues --   -0.57648  -0.56471  -0.53995  -0.53995  -0.53860
 Alpha  occ. eigenvalues --   -0.53269  -0.51407  -0.51407  -0.50910  -0.50910
 Alpha  occ. eigenvalues --   -0.50246  -0.48340  -0.47451  -0.47451  -0.47147
 Alpha  occ. eigenvalues --   -0.47147  -0.46440  -0.46440  -0.45881  -0.44500
 Alpha  occ. eigenvalues --   -0.44069  -0.43799  -0.43799  -0.43730  -0.43436
 Alpha  occ. eigenvalues --   -0.43436  -0.43332  -0.43332  -0.43040  -0.42232
 Alpha  occ. eigenvalues --   -0.42232  -0.42055  -0.41871  -0.41587  -0.41586
 Alpha  occ. eigenvalues --   -0.41255  -0.40095  -0.40094  -0.39846  -0.39846
 Alpha  occ. eigenvalues --   -0.38909  -0.37306  -0.36519  -0.36518  -0.35686
 Alpha  occ. eigenvalues --   -0.35464  -0.35464  -0.35228  -0.34191  -0.34191
 Alpha  occ. eigenvalues --   -0.33669  -0.33669  -0.33284  -0.32595  -0.32595
 Alpha  occ. eigenvalues --   -0.32183  -0.31336  -0.30991  -0.30991  -0.28874
 Alpha  occ. eigenvalues --   -0.28695  -0.28694  -0.27478  -0.24977  -0.24977
 Alpha  occ. eigenvalues --   -0.22900  -0.22900  -0.21490  -0.21490  -0.19887
 Alpha  occ. eigenvalues --   -0.19116
 Alpha virt. eigenvalues --   -0.08526  -0.06935  -0.05492  -0.05492  -0.04957
 Alpha virt. eigenvalues --   -0.04956  -0.02255  -0.02255  -0.01521   0.00908
 Alpha virt. eigenvalues --    0.00909   0.02340   0.02964   0.03180   0.03180
 Alpha virt. eigenvalues --    0.03548   0.04034   0.04035   0.04557   0.04998
 Alpha virt. eigenvalues --    0.04998   0.06258   0.06259   0.06954   0.06954
 Alpha virt. eigenvalues --    0.07230   0.07231   0.07718   0.08531   0.09548
 Alpha virt. eigenvalues --    0.09609   0.10951   0.10996   0.10996   0.11154
 Alpha virt. eigenvalues --    0.11534   0.11535   0.13081   0.13083   0.15190
 Alpha virt. eigenvalues --    0.15211   0.15213   0.17193   0.17194   0.17627
 Alpha virt. eigenvalues --    0.17627   0.17700   0.18962   0.20929   0.20930
 Alpha virt. eigenvalues --    0.21277   0.22656   0.22773   0.22774   0.23593
 Alpha virt. eigenvalues --    0.23892   0.24405   0.24406   0.24428   0.24429
 Alpha virt. eigenvalues --    0.26090   0.26250   0.26250   0.26935   0.26936
 Alpha virt. eigenvalues --    0.27054   0.27468   0.27468   0.27529   0.29586
 Alpha virt. eigenvalues --    0.29974   0.29974   0.29978   0.29979   0.30935
 Alpha virt. eigenvalues --    0.31175   0.31175   0.31335   0.31849   0.31851
 Alpha virt. eigenvalues --    0.33057   0.33962   0.34748   0.34748   0.35443
 Alpha virt. eigenvalues --    0.35744   0.36331   0.36332   0.36420   0.36420
 Alpha virt. eigenvalues --    0.36679   0.36680   0.36790   0.37282   0.37282
 Alpha virt. eigenvalues --    0.37487   0.37775   0.38132   0.38133   0.38708
 Alpha virt. eigenvalues --    0.38709   0.38898   0.38898   0.39710   0.39828
 Alpha virt. eigenvalues --    0.39869   0.40507   0.40507   0.40585   0.40585
 Alpha virt. eigenvalues --    0.41485   0.41857   0.42349   0.42539   0.42540
 Alpha virt. eigenvalues --    0.42694   0.42695   0.43052   0.43053   0.43717
 Alpha virt. eigenvalues --    0.43717   0.44050   0.44090   0.44277   0.44278
 Alpha virt. eigenvalues --    0.44929   0.44929   0.44967   0.45011   0.45012
 Alpha virt. eigenvalues --    0.45353   0.45603   0.45649   0.45649   0.46127
 Alpha virt. eigenvalues --    0.46293   0.46294   0.46569   0.46859   0.46860
 Alpha virt. eigenvalues --    0.47318   0.48438   0.48439   0.48456   0.48689
 Alpha virt. eigenvalues --    0.48690   0.48988   0.48990   0.49225   0.49479
 Alpha virt. eigenvalues --    0.49479   0.49540   0.49663   0.49682   0.49683
 Alpha virt. eigenvalues --    0.50032   0.51343   0.51853   0.51854   0.52183
 Alpha virt. eigenvalues --    0.52678   0.52696   0.53581   0.53582   0.53728
 Alpha virt. eigenvalues --    0.53729   0.53934   0.54234   0.54235   0.56777
 Alpha virt. eigenvalues --    0.56778   0.56944   0.57237   0.57237   0.57922
 Alpha virt. eigenvalues --    0.57923   0.58457   0.58806   0.58807   0.59517
 Alpha virt. eigenvalues --    0.59560   0.60163   0.60164   0.60272   0.61003
 Alpha virt. eigenvalues --    0.61004   0.61334   0.61353   0.61353   0.62474
 Alpha virt. eigenvalues --    0.62475   0.63184   0.63402   0.63589   0.63590
 Alpha virt. eigenvalues --    0.64053   0.64164   0.64985   0.64985   0.65658
 Alpha virt. eigenvalues --    0.65658   0.65935   0.66145   0.66146   0.66631
 Alpha virt. eigenvalues --    0.66632   0.67939   0.67941   0.68017   0.68769
 Alpha virt. eigenvalues --    0.68771   0.68912   0.69322   0.69325   0.69573
 Alpha virt. eigenvalues --    0.69942   0.70523   0.70523   0.71013   0.71014
 Alpha virt. eigenvalues --    0.72114   0.72932   0.73651   0.73653   0.73739
 Alpha virt. eigenvalues --    0.73856   0.73858   0.74042   0.74470   0.74957
 Alpha virt. eigenvalues --    0.74958   0.75128   0.75131   0.76254   0.76256
 Alpha virt. eigenvalues --    0.76449   0.77382   0.77583   0.78218   0.78219
 Alpha virt. eigenvalues --    0.78769   0.78872   0.78874   0.81001   0.81002
 Alpha virt. eigenvalues --    0.81142   0.81431   0.81484   0.81485   0.81555
 Alpha virt. eigenvalues --    0.81855   0.82240   0.82241   0.82293   0.82295
 Alpha virt. eigenvalues --    0.82605   0.82606   0.82632   0.83127   0.83129
 Alpha virt. eigenvalues --    0.84070   0.86274   0.86275   0.86751   0.86754
 Alpha virt. eigenvalues --    0.87902   0.87905   0.89236   0.89240   0.89271
 Alpha virt. eigenvalues --    0.90278   0.90566   0.90568   0.90779   0.92976
 Alpha virt. eigenvalues --    0.94053   0.94056   0.94517   0.95542   0.95629
 Alpha virt. eigenvalues --    0.97146   0.97150   0.97422   0.97423   0.98959
 Alpha virt. eigenvalues --    0.99193   0.99386   0.99387   0.99430   0.99434
 Alpha virt. eigenvalues --    1.00759   1.01466   1.01567   1.02352   1.02353
 Alpha virt. eigenvalues --    1.02627   1.02629   1.04290   1.05538   1.05931
 Alpha virt. eigenvalues --    1.05931   1.06995   1.06996   1.07006   1.07011
 Alpha virt. eigenvalues --    1.08455   1.08459   1.08470   1.08718   1.08757
 Alpha virt. eigenvalues --    1.08762   1.10358   1.10362   1.10427   1.11404
 Alpha virt. eigenvalues --    1.11537   1.11540   1.12894   1.12910   1.13203
 Alpha virt. eigenvalues --    1.13205   1.13972   1.13975   1.14616   1.15262
 Alpha virt. eigenvalues --    1.15266   1.16190   1.17234   1.17235   1.18327
 Alpha virt. eigenvalues --    1.20474   1.21125   1.21127   1.21273   1.21784
 Alpha virt. eigenvalues --    1.21851   1.21853   1.23111   1.24203   1.24204
 Alpha virt. eigenvalues --    1.24739   1.24740   1.26095   1.26096   1.28417
 Alpha virt. eigenvalues --    1.28418   1.29174   1.31583   1.31585   1.32734
 Alpha virt. eigenvalues --    1.32853   1.32855   1.33329   1.33705   1.35259
 Alpha virt. eigenvalues --    1.36520   1.36955   1.36956   1.37835   1.37836
 Alpha virt. eigenvalues --    1.38826   1.39604   1.41548   1.41548   1.42322
 Alpha virt. eigenvalues --    1.42325   1.43063   1.43063   1.43608   1.44145
 Alpha virt. eigenvalues --    1.44568   1.44569   1.45824   1.46547   1.46549
 Alpha virt. eigenvalues --    1.47577   1.47661   1.47664   1.48596   1.49063
 Alpha virt. eigenvalues --    1.49064   1.49132   1.49134   1.49434   1.50523
 Alpha virt. eigenvalues --    1.50524   1.51175   1.51889   1.51890   1.52756
 Alpha virt. eigenvalues --    1.52903   1.52905   1.54736   1.55111   1.55113
 Alpha virt. eigenvalues --    1.55121   1.56240   1.56644   1.56645   1.58722
 Alpha virt. eigenvalues --    1.58724   1.59467   1.59469   1.60714   1.60717
 Alpha virt. eigenvalues --    1.60726   1.61268   1.61935   1.63263   1.63266
 Alpha virt. eigenvalues --    1.64090   1.65387   1.65690   1.65692   1.67140
 Alpha virt. eigenvalues --    1.67264   1.67882   1.67883   1.68507   1.68508
 Alpha virt. eigenvalues --    1.71938   1.72137   1.72137   1.72791   1.72791
 Alpha virt. eigenvalues --    1.73864   1.74469   1.74985   1.75129   1.75817
 Alpha virt. eigenvalues --    1.75818   1.76769   1.76770   1.78121   1.78123
 Alpha virt. eigenvalues --    1.79143   1.79145   1.79225   1.79481   1.79483
 Alpha virt. eigenvalues --    1.79963   1.82230   1.82444   1.82445   1.83701
 Alpha virt. eigenvalues --    1.83772   1.83773   1.86052   1.86053   1.87130
 Alpha virt. eigenvalues --    1.88394   1.88396   1.89526   1.89527   1.89573
 Alpha virt. eigenvalues --    1.89981   1.90088   1.91495   1.91498   1.93114
 Alpha virt. eigenvalues --    1.93116   1.93781   1.93783   1.94537   1.95234
 Alpha virt. eigenvalues --    1.95342   1.95519   1.95521   1.97166   1.97168
 Alpha virt. eigenvalues --    1.97669   1.98194   1.98194   1.98577   2.00803
 Alpha virt. eigenvalues --    2.00804   2.01628   2.01819   2.01820   2.02928
 Alpha virt. eigenvalues --    2.05500   2.05503   2.05584   2.05586   2.06059
 Alpha virt. eigenvalues --    2.07102   2.07172   2.07491   2.07878   2.07879
 Alpha virt. eigenvalues --    2.07977   2.08749   2.08751   2.10536   2.10537
 Alpha virt. eigenvalues --    2.12646   2.12648   2.14262   2.15227   2.15228
 Alpha virt. eigenvalues --    2.15390   2.15391   2.16703   2.16973   2.17351
 Alpha virt. eigenvalues --    2.17353   2.17528   2.18976   2.18981   2.20681
 Alpha virt. eigenvalues --    2.22794   2.23046   2.23428   2.23433   2.24323
 Alpha virt. eigenvalues --    2.24323   2.26980   2.26983   2.28736   2.29379
 Alpha virt. eigenvalues --    2.29382   2.29906   2.30481   2.31904   2.31905
 Alpha virt. eigenvalues --    2.32105   2.34532   2.34533   2.35888   2.35890
 Alpha virt. eigenvalues --    2.37216   2.38039   2.38041   2.41845   2.41932
 Alpha virt. eigenvalues --    2.42178   2.42250   2.42251   2.42987   2.42990
 Alpha virt. eigenvalues --    2.44008   2.44470   2.44473   2.45677   2.47508
 Alpha virt. eigenvalues --    2.47511   2.48072   2.48073   2.48616   2.48957
 Alpha virt. eigenvalues --    2.48958   2.49526   2.49762   2.49763   2.49785
 Alpha virt. eigenvalues --    2.51118   2.51603   2.51608   2.56462   2.56463
 Alpha virt. eigenvalues --    2.56742   2.57527   2.57529   2.59611   2.60806
 Alpha virt. eigenvalues --    2.61924   2.61926   2.64513   2.64515   2.65026
 Alpha virt. eigenvalues --    2.65593   2.65595   2.66052   2.67504   2.67809
 Alpha virt. eigenvalues --    2.68829   2.68831   2.69680   2.69682   2.69711
 Alpha virt. eigenvalues --    2.69712   2.72302   2.72404   2.73066   2.73068
 Alpha virt. eigenvalues --    2.76026   2.76892   2.76892   2.79272   2.79795
 Alpha virt. eigenvalues --    2.79796   2.79913   2.79915   2.80178   2.81612
 Alpha virt. eigenvalues --    2.81615   2.82764   2.87300   2.87303   2.91466
 Alpha virt. eigenvalues --    2.92802   2.92805   2.94115   2.94592   2.94594
 Alpha virt. eigenvalues --    2.96087   2.96509   2.96879   2.96881   2.97566
 Alpha virt. eigenvalues --    2.97645   2.97647   3.00831   3.01924   3.01924
 Alpha virt. eigenvalues --    3.03278   3.03281   3.03929   3.06289   3.06291
 Alpha virt. eigenvalues --    3.07788   3.08812   3.08815   3.09066   3.09786
 Alpha virt. eigenvalues --    3.09788   3.10771   3.11456   3.11458   3.11541
 Alpha virt. eigenvalues --    3.13077   3.13725   3.14279   3.14280   3.14337
 Alpha virt. eigenvalues --    3.14341   3.14935   3.14937   3.14988   3.17136
 Alpha virt. eigenvalues --    3.17138   3.17734   3.18690   3.20404   3.20405
 Alpha virt. eigenvalues --    3.21428   3.21430   3.21647   3.23446   3.23447
 Alpha virt. eigenvalues --    3.24878   3.25257   3.25259   3.26021   3.27001
 Alpha virt. eigenvalues --    3.28044   3.28046   3.28998   3.29365   3.29367
 Alpha virt. eigenvalues --    3.29608   3.30558   3.31310   3.31310   3.31575
 Alpha virt. eigenvalues --    3.31576   3.35704   3.35706   3.37652   3.38349
 Alpha virt. eigenvalues --    3.38350   3.39581   3.39914   3.39914   3.41039
 Alpha virt. eigenvalues --    3.41086   3.42516   3.42517   3.44566   3.44567
 Alpha virt. eigenvalues --    3.44876   3.44877   3.45185   3.48035   3.48603
 Alpha virt. eigenvalues --    3.48604   3.49011   3.49013   3.49914   3.52068
 Alpha virt. eigenvalues --    3.56806   3.58821   3.58821   3.62023   3.62024
 Alpha virt. eigenvalues --    3.67737   3.72556   3.75514   3.75515   3.77060
 Alpha virt. eigenvalues --    3.77063   3.80014   3.92985   3.92987   3.93057
 Alpha virt. eigenvalues --    3.95215   3.95971   3.95973   4.00074   4.00332
 Alpha virt. eigenvalues --    4.00334   4.05654   4.05654   4.11770   4.14171
 Alpha virt. eigenvalues --    4.25276   4.25281   4.40015   4.40022   4.47942
 Alpha virt. eigenvalues --    4.58028   4.59344   4.59349   4.62895   4.62901
 Alpha virt. eigenvalues --    4.66005   4.68702   4.72686   4.72690   4.78893
 Alpha virt. eigenvalues --    4.78898   4.82061  23.10590  23.19992  23.19993
 Alpha virt. eigenvalues --   23.38601  23.38604  23.50735  23.58715  23.60946
 Alpha virt. eigenvalues --   23.60946  23.64606  23.64606  23.66353  23.73864
 Alpha virt. eigenvalues --   23.78682  23.78682  23.81350  23.81352  23.81998
 Alpha virt. eigenvalues --   23.87210  23.89508  23.89510  23.94980  23.94981
 Alpha virt. eigenvalues --   23.96890  23.97701  23.97703  23.97797  23.98305
 Alpha virt. eigenvalues --   23.98307  23.98476  24.02446  24.02572  24.02574
 Alpha virt. eigenvalues --   24.03278  24.03280  24.03904  24.06845  24.06879
 Alpha virt. eigenvalues --   24.06882  24.07164  24.07168  24.07573  24.14493
 Alpha virt. eigenvalues --   24.14495  24.14672  24.14674  24.14786  24.15095
          Condensed to atoms (all electrons):
 Mulliken charges:
               1
     1  C    0.050366
     2  C    0.023528
     3  C   -0.227971
     4  C   -0.227968
     5  C    0.050449
     6  C    0.023393
     7  C   -0.239672
     8  C   -0.239822
     9  C    0.023549
    10  C    0.050314
    11  C   -0.227961
    12  C   -0.227982
    13  C    0.023432
    14  C    0.050449
    15  C   -0.239759
    16  C   -0.239731
    17  C    0.050358
    18  C    0.023511
    19  C   -0.227987
    20  C   -0.227964
    21  C    0.050462
    22  C    0.023392
    23  C   -0.239726
    24  C   -0.239782
    25  C    0.023528
    26  C    0.050366
    27  C   -0.227967
    28  C   -0.227972
    29  C    0.023391
    30  C    0.050453
    31  C   -0.239823
    32  C   -0.239671
    33  C    0.050314
    34  C    0.023548
    35  C   -0.227981
    36  C   -0.227963
    37  C    0.050447
    38  C    0.023434
    39  C   -0.239732
    40  C   -0.239759
    41  C    0.023512
    42  C    0.050358
    43  C   -0.227963
    44  C   -0.227988
    45  C    0.023390
    46  C    0.050464
    47  C   -0.239781
    48  C   -0.239725
    49  H    0.194889
    50  H    0.194886
    51  H    0.198959
    52  H    0.198969
    53  H    0.194888
    54  H    0.194887
    55  H    0.198967
    56  H    0.198968
    57  H    0.194887
    58  H    0.194886
    59  H    0.198960
    60  H    0.198973
    61  H    0.194886
    62  H    0.194889
    63  H    0.198969
    64  H    0.198959
    65  H    0.194887
    66  H    0.194889
    67  H    0.198968
    68  H    0.198967
    69  H    0.194885
    70  H    0.194886
    71  H    0.198973
    72  H    0.198960
 Sum of Mulliken charges =  -0.00000
 Mulliken charges with hydrogens summed into heavy atoms:
               1
     1  C    0.050366
     2  C    0.023528
     3  C   -0.033082
     4  C   -0.033081
     5  C    0.050449
     6  C    0.023393
     7  C   -0.040713
     8  C   -0.040853
     9  C    0.023549
    10  C    0.050314
    11  C   -0.033073
    12  C   -0.033095
    13  C    0.023432
    14  C    0.050449
    15  C   -0.040792
    16  C   -0.040763
    17  C    0.050358
    18  C    0.023511
    19  C   -0.033101
    20  C   -0.033078
    21  C    0.050462
    22  C    0.023392
    23  C   -0.040766
    24  C   -0.040808
    25  C    0.023528
    26  C    0.050366
    27  C   -0.033081
    28  C   -0.033083
    29  C    0.023391
    30  C    0.050453
    31  C   -0.040854
    32  C   -0.040712
    33  C    0.050314
    34  C    0.023548
    35  C   -0.033093
    36  C   -0.033074
    37  C    0.050447
    38  C    0.023434
    39  C   -0.040764
    40  C   -0.040793
    41  C    0.023512
    42  C    0.050358
    43  C   -0.033078
    44  C   -0.033102
    45  C    0.023390
    46  C    0.050464
    47  C   -0.040808
    48  C   -0.040765
 Electronic spatial extent (au):  <R**2>=          23119.0485
 Charge=              0.0000 electrons
 Dipole moment (field-independent basis, Debye):
    X=             -0.0000    Y=              0.0000    Z=             -0.0000  Tot=              0.0000
 Quadrupole moment (field-independent basis, Debye-Ang):
   XX=           -289.3453   YY=           -289.3468   ZZ=           -233.7046
   XY=             -0.0011   XZ=              0.0006   YZ=              0.0005
 Traceless Quadrupole moment (field-independent basis, Debye-Ang):
   XX=            -18.5464   YY=            -18.5479   ZZ=             37.0943
   XY=             -0.0011   XZ=              0.0006   YZ=              0.0005
 Octapole moment (field-independent basis, Debye-Ang**2):
  XXX=              0.0000  YYY=             -0.0000  ZZZ=             27.5098  XYY=             -0.0003
  XXY=              0.0003  XXZ=             11.3530  XZZ=             -0.0001  YZZ=             -0.0000
  YYZ=             11.3530  XYZ=              0.0000
 Hexadecapole moment (field-independent basis, Debye-Ang**3):
 XXXX=         -15652.1038 YYYY=         -15650.5084 ZZZZ=          -3961.0378 XXXY=             -0.9602
 XXXZ=            134.4080 YYYX=             -0.9518 YYYZ=             11.2630 ZZZX=             -0.0248
 ZZZY=             -0.0696 XXYY=          -5217.0902 XXZZ=          -2833.9497 YYZZ=          -2833.7483
 XXYZ=            -11.3748 YYXZ=           -134.4210 ZZXY=             -0.2536
 N-N= 5.408952431919D+03 E-N=-1.509590317822D+04  KE= 1.835869072791D+03
 1\1\GINC-CU24\SP\RB3LYP\6-311G(d)\C48H24\WANG\27-Apr-2025\0\\# B3LYP/6
 -311G* NOSYMM\\From 6_6-CNB_opt.out\\0,1\C,0,3.871266,-1.51333,-1.2321
 28\C,0,4.082981,-0.849326,0.018522\C,0,4.171731,0.561094,-2.460435\C,0
 ,4.133581,-0.794225,-2.460423\C,0,3.950413,1.293863,-1.232145\C,0,4.12
 4453,0.618981,0.018511\C,0,3.946607,1.381726,1.181849\C,0,3.318055,2.5
 44702,-1.260298\C,0,2.777616,3.11157,-0.096942\C,0,3.246848,2.596178,1
 .1537\C,0,2.755119,3.182838,2.381988\C,0,1.600262,3.893243,2.381975\C,
 0,1.526464,3.881197,-0.096955\C,0,0.854944,4.067667,1.153696\C,0,-0.54
 4514,4.145119,1.181888\C,0,0.776867,4.108138,-1.260291\C,0,-0.624732,4
 .109166,-1.2321\C,0,-1.305668,3.960505,0.01855\C,0,-2.571437,3.332065,
 -2.46042\C,0,-1.378634,3.976718,-2.460398\C,0,-3.095325,2.773929,-1.23
 2148\C,0,-2.597903,3.262099,0.018522\C,0,-3.169533,2.726621,1.181839\C
 ,0,-3.862302,1.600795,-1.260331\C,0,-4.082983,0.849325,-0.096996\C,0,-
 3.87127,1.513331,1.153652\C,0,-4.13358,0.794227,2.381948\C,0,-4.171726
 ,-0.561093,2.381961\C,0,-4.124451,-0.618981,-0.096984\C,0,-3.950412,-1
 .293862,1.153672\C,0,-3.31805,-2.5447,1.181823\C,0,-3.946602,-1.381724
 ,-1.260324\C,0,-3.246845,-2.596176,-1.232176\C,0,-2.777614,-3.111568,0
 .018467\C,0,-1.600262,-3.893248,-2.460449\C,0,-2.755118,-3.182839,-2.4
 60463\C,0,-0.854943,-4.067668,-1.23217\C,0,-1.526464,-3.881198,0.01848
 1\C,0,-0.776867,-4.108144,1.181816\C,0,0.544514,-4.145124,-1.260363\C,
 0,1.30567,-3.960507,-0.097024\C,0,0.624733,-4.10917,1.153624\C,0,1.378
 633,-3.976719,2.381923\C,0,2.571434,-3.332063,2.381946\C,0,2.597902,-3
 .262098,-0.096995\C,0,3.095324,-2.773929,1.153674\C,0,3.862299,-1.6007
 93,1.181856\C,0,3.16953,-2.726617,-1.260314\H,0,4.243744,1.115812,-3.3
 9288\H,0,4.174268,-1.35215,-3.392849\H,0,4.153872,0.947758,2.155845\H,
 0,3.068605,2.955882,-2.234295\H,0,3.258669,2.939248,3.314435\H,0,1.155
 777,4.232864,3.314415\H,0,-1.025273,4.134671,2.155906\H,0,1.25631,4.07
 0679,-2.234293\H,0,-3.087823,3.117058,-3.392873\H,0,-0.91582,4.290923,
 -3.392832\H,0,-2.897508,3.123166,2.155859\H,0,-4.093716,1.179255,-2.23
 4343\H,0,-4.174266,1.352152,3.314375\H,0,-4.243735,-1.11581,3.314408\H
 ,0,-3.068598,-2.955878,2.15582\H,0,-4.153862,-0.947752,-2.234319\H,0,-
 1.155778,-4.232872,-3.392887\H,0,-3.258667,-2.939251,-3.39291\H,0,-1.2
 56309,-4.070691,2.155819\H,0,1.025274,-4.134678,-2.234382\H,0,0.915818
 ,-4.290923,3.314357\H,0,3.087816,-3.117052,3.314401\H,0,4.09371,-1.179
 252,2.155868\H,0,2.897499,-3.123161,-2.234332\\Version=ES64L-G16RevB.0
 1\HF=-1843.8926238\RMSD=6.489e-09\Dipole=-0.0000005,0.000001,-0.000000
 3\Quadrupole=-13.7887742,-13.7898974,27.5786716,-0.0008195,0.0004561,0
 .0003985\PG=C01 [X(C48H24)]\\@


 AN AIRPLANE IS A COLLECTION OF SPARE PARTS
 FLYING IN CLOSE FORMATION.
 Job cpu time:       0 days  0 hours 30 minutes 34.5 seconds.
 Elapsed time:       0 days  0 hours  1 minutes 42.7 seconds.
 File lengths (MBytes):  RWF=    476 Int=      0 D2E=      0 Chk=     52 Scr=      1
 Normal termination of Gaussian 16 at Sun Apr 27 18:15:16 2025.
