 Entering Gaussian System, Link 0=g16
 Initial command:
 /opt/software/g16/l1.exe "/tmp/C60_1811_sgp-21400.tmp/Gau-61729.inp" -scrdir="/tmp/C60_1811_sgp-21400.tmp/"
 Entering Link 1 = /opt/software/g16/l1.exe PID=     61730.
  
 Copyright (c) 1988-2017, Gaussian, Inc.  All Rights Reserved.
  
 This is part of the Gaussian(R) 16 program.  It is based on
 the Gaussian(R) 09 system (copyright 2009, Gaussian, Inc.),
 the Gaussian(R) 03 system (copyright 2003, Gaussian, Inc.),
 the Gaussian(R) 98 system (copyright 1998, Gaussian, Inc.),
 the Gaussian(R) 94 system (copyright 1995, Gaussian, Inc.),
 the Gaussian 92(TM) system (copyright 1992, Gaussian, Inc.),
 the Gaussian 90(TM) system (copyright 1990, Gaussian, Inc.),
 the Gaussian 88(TM) system (copyright 1988, Gaussian, Inc.),
 the Gaussian 86(TM) system (copyright 1986, Carnegie Mellon
 University), and the Gaussian 82(TM) system (copyright 1983,
 Carnegie Mellon University). Gaussian is a federally registered
 trademark of Gaussian, Inc.
  
 This software contains proprietary and confidential information,
 including trade secrets, belonging to Gaussian, Inc.
  
 This software is provided under written license and may be
 used, copied, transmitted, or stored only in accord with that
 written license.
  
 The following legend is applicable only to US Government
 contracts under FAR:
  
                    RESTRICTED RIGHTS LEGEND
  
 Use, reproduction and disclosure by the US Government is
 subject to restrictions as set forth in subparagraphs (a)
 and (c) of the Commercial Computer Software - Restricted
 Rights clause in FAR 52.227-19.
  
 Gaussian, Inc.
 340 Quinnipiac St., Bldg. 40, Wallingford CT 06492
  
  
 ---------------------------------------------------------------
 Warning -- This program may not be used in any manner that
 competes with the business of Gaussian, Inc. or will provide
 assistance to any competitor of Gaussian, Inc.  The licensee
 of this program is prohibited from giving any competitor of
 Gaussian, Inc. access to this program.  By using this program,
 the user acknowledges that Gaussian, Inc. is engaged in the
 business of creating and licensing software in the field of
 computational chemistry and represents and warrants to the
 licensee that it is not a competitor of Gaussian, Inc. and that
 it will not use this program in any manner prohibited above.
 ---------------------------------------------------------------
  

 Cite this work as:
 Gaussian 16, Revision B.01,
 M. J. Frisch, G. W. Trucks, H. B. Schlegel, G. E. Scuseria, 
 M. A. Robb, J. R. Cheeseman, G. Scalmani, V. Barone, 
 G. A. Petersson, H. Nakatsuji, X. Li, M. Caricato, A. V. Marenich, 
 J. Bloino, B. G. Janesko, R. Gomperts, B. Mennucci, H. P. Hratchian, 
 J. V. Ortiz, A. F. Izmaylov, J. L. Sonnenberg, D. Williams-Young, 
 F. Ding, F. Lipparini, F. Egidi, J. Goings, B. Peng, A. Petrone, 
 T. Henderson, D. Ranasinghe, V. G. Zakrzewski, J. Gao, N. Rega, 
 G. Zheng, W. Liang, M. Hada, M. Ehara, K. Toyota, R. Fukuda, 
 J. Hasegawa, M. Ishida, T. Nakajima, Y. Honda, O. Kitao, H. Nakai, 
 T. Vreven, K. Throssell, J. A. Montgomery, Jr., J. E. Peralta, 
 F. Ogliaro, M. J. Bearpark, J. J. Heyd, E. N. Brothers, K. N. Kudin, 
 V. N. Staroverov, T. A. Keith, R. Kobayashi, J. Normand, 
 K. Raghavachari, A. P. Rendell, J. C. Burant, S. S. Iyengar, 
 J. Tomasi, M. Cossi, J. M. Millam, M. Klene, C. Adamo, R. Cammi, 
 J. W. Ochterski, R. L. Martin, K. Morokuma, O. Farkas, 
 J. B. Foresman, and D. J. Fox, Gaussian, Inc., Wallingford CT, 2016.
 
 ******************************************
 Gaussian 16:  ES64L-G16RevB.01 20-Dec-2017
                 6-Jun-2025 
 ******************************************
 %nproc=18
 Will use up to   18 processors via shared memory.
 ------------------------------------
 # B3LYP/6-311G* Pop=Hirshfeld NOSYMM
 ------------------------------------
 1/38=1,172=1/1;
 2/12=2,15=1,17=6,18=5,40=1/2;
 3/5=4,6=6,7=1,11=2,25=1,30=1,74=-5/1,2,3;
 4//1;
 5/5=2,38=5/2;
 6/7=2,8=2,9=2,10=2,28=1,79=1/1;
 99/5=1,9=1/99;
 ------------------------------
 From ../B3LYP_opt/C60_1811.out
 ------------------------------
 Symbolic Z-matrix:
 Charge =  0 Multiplicity = 1
 6                    -3.50765  -0.98428   0.3044 
 6                    -3.54485  -0.62255  -1.12619 
 6                    -2.6508   -1.44105  -1.82093 
 6                    -2.22968  -2.46673  -0.86207 
 6                    -2.66812  -2.07268   0.49076 
 6                    -3.42913   0.20829   1.07166 
 6                    -3.5541    1.32685   0.14144 
 6                    -3.55026   0.78911  -1.22229 
 6                    -2.75946   1.37309  -2.2163 
 6                    -1.88341   0.5263   -3.02111 
 6                    -1.70302  -0.86819  -2.74938 
 6                    -0.35128  -1.44136  -2.82016 
 6                    -0.13312  -2.67886  -2.11246 
 6                    -1.05256  -3.10067  -1.03803 
 6                    -0.26891  -3.51147   0.1307 
 6                    -0.56053  -2.97137   1.43906 
 6                    -1.75158  -2.12559   1.60294 
 6                    -1.73701  -0.96832   2.49013 
 6                    -2.52759   0.2326    2.18417 
 6                    -1.96719   1.52844   2.49282 
 6                    -2.1739    2.61189   1.63528 
 6                    -2.86807   2.51588   0.40608 
 6                    -2.0352    3.14322  -0.62427 
 6                    -2.04446   2.61792  -1.91976 
 6                    -0.81654   2.58462  -2.62193 
 6                    -0.73336   1.29689  -3.33859 
 6                     0.56195   0.80537  -3.26971 
 6                     0.81684  -0.59237  -3.02256 
 6                     2.11519  -0.93217  -2.42296 
 6                     2.26319  -2.18578  -1.74652 
 6                     1.13311  -3.04333  -1.67896 
 6                     1.05081  -3.60794  -0.3176 
 6                     2.1641   -3.14023   0.41987 
 6                     1.9459   -2.7531    1.74539 
 6                     0.58262  -2.73277   2.26813 
 6                     0.51196  -1.67245   3.21042 
 6                    -0.54524  -0.77706   3.27929 
 6                     0.07612   0.55692   3.3888 
 6                    -0.58167   1.65145   2.95541 
 6                     0.1139    2.66184   2.13498 
 6                    -0.87764   3.26992   1.37922 
 6                    -0.76217   3.517    -0.01458 
 6                     0.49704   3.24884  -0.64194 
 6                     0.42029   2.85088  -2.02913 
 6                     1.34008   1.84525  -2.56909 
 6                     2.44787   1.51402  -1.87512 
 6                     2.94934   0.13746  -1.9243 
 6                     3.69468  -0.03225  -0.75483 
 6                     3.64417  -1.19954   0.0432 
 6                     2.97396  -2.3106   -0.47719 
 6                     3.42882  -0.77951   1.43103 
 6                     2.65448  -1.5833    2.27294 
 6                     1.78975  -0.93387   3.18532 
 6                     1.51748   0.43606   3.15072 
 6                     2.17894   1.29029   2.19089 
 6                     1.41305   2.38297   1.57439 
 6                     1.60986   2.74452   0.17546 
 6                     2.67069   2.06143  -0.52293 
 6                     3.47358   1.13324   0.12354 
 6                     3.22875   0.66683   1.44245 
 
 Symmetry turned off by external request.
 Stoichiometry    C60
 Framework group  C1[X(C60)]
 Deg. of freedom   174
 Full point group                 C1      NOp   1
                          Input orientation:                          
 ---------------------------------------------------------------------
 Center     Atomic      Atomic             Coordinates (Angstroms)
 Number     Number       Type             X           Y           Z
 ---------------------------------------------------------------------
      1          6           0       -3.507651   -0.984283    0.304402
      2          6           0       -3.544852   -0.622553   -1.126187
      3          6           0       -2.650797   -1.441053   -1.820926
      4          6           0       -2.229678   -2.466726   -0.862065
      5          6           0       -2.668120   -2.072682    0.490759
      6          6           0       -3.429130    0.208285    1.071656
      7          6           0       -3.554102    1.326850    0.141444
      8          6           0       -3.550258    0.789112   -1.222287
      9          6           0       -2.759460    1.373094   -2.216298
     10          6           0       -1.883411    0.526302   -3.021108
     11          6           0       -1.703016   -0.868185   -2.749384
     12          6           0       -0.351281   -1.441364   -2.820158
     13          6           0       -0.133121   -2.678864   -2.112463
     14          6           0       -1.052558   -3.100666   -1.038032
     15          6           0       -0.268906   -3.511466    0.130698
     16          6           0       -0.560534   -2.971366    1.439055
     17          6           0       -1.751582   -2.125585    1.602941
     18          6           0       -1.737012   -0.968317    2.490129
     19          6           0       -2.527591    0.232600    2.184170
     20          6           0       -1.967193    1.528435    2.492822
     21          6           0       -2.173904    2.611886    1.635275
     22          6           0       -2.868071    2.515875    0.406082
     23          6           0       -2.035202    3.143218   -0.624265
     24          6           0       -2.044460    2.617919   -1.919763
     25          6           0       -0.816537    2.584620   -2.621931
     26          6           0       -0.733355    1.296893   -3.338589
     27          6           0        0.561948    0.805371   -3.269713
     28          6           0        0.816837   -0.592371   -3.022562
     29          6           0        2.115191   -0.932173   -2.422958
     30          6           0        2.263189   -2.185783   -1.746520
     31          6           0        1.133114   -3.043331   -1.678957
     32          6           0        1.050807   -3.607944   -0.317599
     33          6           0        2.164098   -3.140230    0.419870
     34          6           0        1.945896   -2.753095    1.745389
     35          6           0        0.582620   -2.732770    2.268130
     36          6           0        0.511960   -1.672445    3.210425
     37          6           0       -0.545240   -0.777058    3.279293
     38          6           0        0.076115    0.556922    3.388795
     39          6           0       -0.581671    1.651446    2.955410
     40          6           0        0.113898    2.661835    2.134983
     41          6           0       -0.877637    3.269920    1.379224
     42          6           0       -0.762169    3.517002   -0.014575
     43          6           0        0.497040    3.248842   -0.641935
     44          6           0        0.420286    2.850883   -2.029131
     45          6           0        1.340079    1.845252   -2.569085
     46          6           0        2.447873    1.514020   -1.875121
     47          6           0        2.949336    0.137456   -1.924302
     48          6           0        3.694678   -0.032247   -0.754834
     49          6           0        3.644166   -1.199537    0.043195
     50          6           0        2.973962   -2.310602   -0.477192
     51          6           0        3.428821   -0.779512    1.431032
     52          6           0        2.654484   -1.583302    2.272939
     53          6           0        1.789748   -0.933866    3.185315
     54          6           0        1.517481    0.436056    3.150724
     55          6           0        2.178942    1.290288    2.190885
     56          6           0        1.413045    2.382967    1.574389
     57          6           0        1.609862    2.744523    0.175459
     58          6           0        2.670688    2.061435   -0.522929
     59          6           0        3.473582    1.133244    0.123535
     60          6           0        3.228752    0.666829    1.442445
 ---------------------------------------------------------------------
 Rotational constants (GHZ):           0.0918551           0.0791288           0.0791272
 Standard basis: 6-311G(d) (5D, 7F)
  1080 basis functions,  1920 primitive gaussians,  1140 cartesian basis functions
   180 alpha electrons      180 beta electrons
       nuclear repulsion energy      8319.0342201330 Hartrees.
 NAtoms=   60 NActive=   60 NUniq=   60 SFac= 1.00D+00 NAtFMM=   60 NAOKFM=T Big=T
 Integral buffers will be    131072 words long.
 Raffenetti 2 integral format.
 Two-electron integral symmetry is turned off.
 One-electron integrals computed using PRISM.
 NBasis=  1080 RedAO= T EigKep=  1.09D-04  NBF=  1080
 NBsUse=  1080 1.00D-06 EigRej= -1.00D+00 NBFU=  1080
 ExpMin= 1.46D-01 ExpMax= 4.56D+03 ExpMxC= 6.82D+02 IAcc=3 IRadAn=         5 AccDes= 0.00D+00
 Harris functional with IExCor=  402 and IRadAn=       5 diagonalized for initial guess.
 HarFok:  IExCor=  402 AccDes= 0.00D+00 IRadAn=         5 IDoV= 1 UseB2=F ITyADJ=14
 ICtDFT=  3500011 ScaDFX=  1.000000  1.000000  1.000000  1.000000
 FoFCou: FMM=F IPFlag=           0 FMFlag=      100000 FMFlg1=        2001
         NFxFlg=           0 DoJE=T BraDBF=F KetDBF=T FulRan=T
         wScrn=  0.000000 ICntrl=       500 IOpCl=  0 I1Cent=   200000004 NGrid=           0
         NMat0=    1 NMatS0=      1 NMatT0=    0 NMatD0=    1 NMtDS0=    0 NMtDT0=    0
 Symmetry not used in FoFCou.
 Requested convergence on RMS density matrix=1.00D-08 within 128 cycles.
 Requested convergence on MAX density matrix=1.00D-06.
 Requested convergence on             energy=1.00D-06.
 No special actions if energy rises.
 Integral accuracy reduced to 1.0D-05 until final iterations.
 Initial convergence to 1.0D-05 achieved.  Increase integral accuracy.
 SCF Done:  E(RB3LYP) =  -2286.39730746     A.U. after   18 cycles
            NFock= 18  Conv=0.57D-08     -V/T= 2.0042

 **********************************************************************

            Population analysis using the SCF Density.

 **********************************************************************

 Alpha  occ. eigenvalues --  -10.24253 -10.24253 -10.24252 -10.24220 -10.24219
 Alpha  occ. eigenvalues --  -10.24219 -10.24061 -10.24061 -10.24060 -10.24060
 Alpha  occ. eigenvalues --  -10.24059 -10.24059 -10.23141 -10.23141 -10.23141
 Alpha  occ. eigenvalues --  -10.23140 -10.23140 -10.23140 -10.23004 -10.23004
 Alpha  occ. eigenvalues --  -10.23004 -10.23003 -10.23002 -10.23002 -10.22877
 Alpha  occ. eigenvalues --  -10.22876 -10.22876 -10.22875 -10.22874 -10.22874
 Alpha  occ. eigenvalues --  -10.22868 -10.22867 -10.22867 -10.22799 -10.22798
 Alpha  occ. eigenvalues --  -10.22798 -10.22766 -10.22765 -10.22765 -10.22760
 Alpha  occ. eigenvalues --  -10.22759 -10.22759 -10.22569 -10.22569 -10.22568
 Alpha  occ. eigenvalues --  -10.22568 -10.22565 -10.22565 -10.22115 -10.22115
 Alpha  occ. eigenvalues --  -10.22115 -10.22114 -10.22114 -10.22113 -10.22021
 Alpha  occ. eigenvalues --  -10.22021 -10.22020 -10.22020 -10.22019 -10.22019
 Alpha  occ. eigenvalues --   -0.98634  -0.97248  -0.96532  -0.96532  -0.94285
 Alpha  occ. eigenvalues --   -0.94284  -0.92290  -0.90846  -0.90845  -0.88173
 Alpha  occ. eigenvalues --   -0.88173  -0.87958  -0.86723  -0.86722  -0.85364
 Alpha  occ. eigenvalues --   -0.84398  -0.81916  -0.81916  -0.80603  -0.79643
 Alpha  occ. eigenvalues --   -0.79643  -0.79546  -0.78987  -0.77468  -0.77468
 Alpha  occ. eigenvalues --   -0.74273  -0.74273  -0.73552  -0.73015  -0.73015
 Alpha  occ. eigenvalues --   -0.72521  -0.70035  -0.70035  -0.67419  -0.67418
 Alpha  occ. eigenvalues --   -0.66901  -0.65018  -0.65018  -0.64606  -0.64325
 Alpha  occ. eigenvalues --   -0.64324  -0.62246  -0.61315  -0.61314  -0.58700
 Alpha  occ. eigenvalues --   -0.58700  -0.57629  -0.56758  -0.56613  -0.55017
 Alpha  occ. eigenvalues --   -0.55017  -0.54527  -0.54527  -0.54359  -0.54148
 Alpha  occ. eigenvalues --   -0.51710  -0.51709  -0.50221  -0.49960  -0.49831
 Alpha  occ. eigenvalues --   -0.49831  -0.49161  -0.49159  -0.47627  -0.47384
 Alpha  occ. eigenvalues --   -0.47383  -0.47259  -0.47259  -0.46755  -0.46754
 Alpha  occ. eigenvalues --   -0.45703  -0.45702  -0.45632  -0.45530  -0.45042
 Alpha  occ. eigenvalues --   -0.43648  -0.43647  -0.43329  -0.43328  -0.43238
 Alpha  occ. eigenvalues --   -0.42655  -0.42655  -0.42228  -0.42053  -0.42053
 Alpha  occ. eigenvalues --   -0.41776  -0.40563  -0.40453  -0.40452  -0.38653
 Alpha  occ. eigenvalues --   -0.38653  -0.37714  -0.37713  -0.37171  -0.37170
 Alpha  occ. eigenvalues --   -0.36868  -0.36682  -0.36602  -0.36601  -0.36405
 Alpha  occ. eigenvalues --   -0.36405  -0.35558  -0.35501  -0.35500  -0.34537
 Alpha  occ. eigenvalues --   -0.34042  -0.30146  -0.30145  -0.28657  -0.28657
 Alpha  occ. eigenvalues --   -0.28637  -0.28534  -0.28063  -0.26756  -0.26756
 Alpha  occ. eigenvalues --   -0.23976  -0.23976  -0.23596  -0.21729  -0.21729
 Alpha virt. eigenvalues --   -0.17024  -0.13100  -0.13099  -0.09647  -0.09647
 Alpha virt. eigenvalues --   -0.07127  -0.07127  -0.06935  -0.06294  -0.06293
 Alpha virt. eigenvalues --   -0.05103  -0.04477  -0.03416  -0.03416  -0.01751
 Alpha virt. eigenvalues --   -0.01750   0.00719   0.00720   0.01091   0.01138
 Alpha virt. eigenvalues --    0.01289   0.03347   0.03348   0.04892   0.05370
 Alpha virt. eigenvalues --    0.05683   0.05684   0.07000   0.07045   0.07046
 Alpha virt. eigenvalues --    0.11181   0.11181   0.12274   0.13834   0.13834
 Alpha virt. eigenvalues --    0.14414   0.14647   0.15335   0.15335   0.15822
 Alpha virt. eigenvalues --    0.15823   0.16784   0.17076   0.17142   0.17142
 Alpha virt. eigenvalues --    0.18782   0.18783   0.20012   0.20013   0.20461
 Alpha virt. eigenvalues --    0.21803   0.22207   0.22208   0.23268   0.23688
 Alpha virt. eigenvalues --    0.23689   0.23904   0.25123   0.25123   0.25291
 Alpha virt. eigenvalues --    0.25547   0.25548   0.26369   0.27948   0.28081
 Alpha virt. eigenvalues --    0.28560   0.28561   0.31105   0.31106   0.31461
 Alpha virt. eigenvalues --    0.31581   0.32297   0.32428   0.32428   0.34027
 Alpha virt. eigenvalues --    0.34182   0.34185   0.34743   0.34913   0.35354
 Alpha virt. eigenvalues --    0.35355   0.35471   0.35471   0.35650   0.35651
 Alpha virt. eigenvalues --    0.35950   0.35950   0.36547   0.36547   0.36610
 Alpha virt. eigenvalues --    0.36619   0.36853   0.37244   0.37246   0.37550
 Alpha virt. eigenvalues --    0.37551   0.37593   0.37912   0.38344   0.38345
 Alpha virt. eigenvalues --    0.38971   0.38971   0.39430   0.39853   0.39854
 Alpha virt. eigenvalues --    0.39971   0.40427   0.40428   0.40635   0.40660
 Alpha virt. eigenvalues --    0.41490   0.41654   0.41655   0.41914   0.41916
 Alpha virt. eigenvalues --    0.42354   0.42385   0.42386   0.42527   0.42528
 Alpha virt. eigenvalues --    0.42992   0.42992   0.44023   0.44135   0.44136
 Alpha virt. eigenvalues --    0.44511   0.44896   0.44896   0.44973   0.45156
 Alpha virt. eigenvalues --    0.45184   0.45185   0.45908   0.45909   0.46039
 Alpha virt. eigenvalues --    0.46039   0.46931   0.46932   0.47018   0.47276
 Alpha virt. eigenvalues --    0.47276   0.47592   0.48049   0.48660   0.48662
 Alpha virt. eigenvalues --    0.48919   0.49048   0.49049   0.49556   0.49556
 Alpha virt. eigenvalues --    0.49759   0.50210   0.51036   0.51288   0.51289
 Alpha virt. eigenvalues --    0.51371   0.51384   0.51563   0.51563   0.52001
 Alpha virt. eigenvalues --    0.52002   0.52051   0.52064   0.52064   0.52497
 Alpha virt. eigenvalues --    0.52498   0.52780   0.53109   0.53237   0.53238
 Alpha virt. eigenvalues --    0.53328   0.53329   0.53862   0.53997   0.53998
 Alpha virt. eigenvalues --    0.54063   0.54282   0.54493   0.54601   0.54602
 Alpha virt. eigenvalues --    0.55373   0.55375   0.55519   0.55795   0.55962
 Alpha virt. eigenvalues --    0.55964   0.56488   0.56489   0.57098   0.57098
 Alpha virt. eigenvalues --    0.57155   0.57381   0.57718   0.57803   0.57804
 Alpha virt. eigenvalues --    0.57877   0.57878   0.58272   0.58273   0.58649
 Alpha virt. eigenvalues --    0.58812   0.58884   0.58885   0.58975   0.58977
 Alpha virt. eigenvalues --    0.59664   0.60102   0.60102   0.60861   0.60862
 Alpha virt. eigenvalues --    0.60952   0.61003   0.61794   0.61795   0.61909
 Alpha virt. eigenvalues --    0.61965   0.62414   0.63421   0.63452   0.63454
 Alpha virt. eigenvalues --    0.63928   0.63928   0.64112   0.64113   0.64485
 Alpha virt. eigenvalues --    0.65681   0.65706   0.65707   0.66293   0.66896
 Alpha virt. eigenvalues --    0.67262   0.67263   0.67554   0.67688   0.67689
 Alpha virt. eigenvalues --    0.67692   0.68100   0.69612   0.70068   0.70069
 Alpha virt. eigenvalues --    0.70668   0.70669   0.71923   0.71924   0.73151
 Alpha virt. eigenvalues --    0.73151   0.73524   0.74068   0.74821   0.74822
 Alpha virt. eigenvalues --    0.74881   0.75419   0.76958   0.76958   0.77022
 Alpha virt. eigenvalues --    0.77469   0.77470   0.78070   0.78189   0.78189
 Alpha virt. eigenvalues --    0.78557   0.79184   0.79185   0.79396   0.80021
 Alpha virt. eigenvalues --    0.80023   0.80272   0.80995   0.80998   0.82151
 Alpha virt. eigenvalues --    0.82152   0.82306   0.82649   0.83414   0.84522
 Alpha virt. eigenvalues --    0.84523   0.85116   0.85117   0.85450   0.85451
 Alpha virt. eigenvalues --    0.86146   0.87472   0.87473   0.87956   0.89261
 Alpha virt. eigenvalues --    0.89262   0.89852   0.90059   0.90492   0.90494
 Alpha virt. eigenvalues --    0.90889   0.91603   0.91604   0.92805   0.92806
 Alpha virt. eigenvalues --    0.94319   0.95406   0.95459   0.95460   0.96337
 Alpha virt. eigenvalues --    0.96338   0.96518   0.96636   0.96638   0.99036
 Alpha virt. eigenvalues --    0.99129   0.99129   1.00537   1.00538   1.01211
 Alpha virt. eigenvalues --    1.02619   1.02681   1.03263   1.03263   1.03524
 Alpha virt. eigenvalues --    1.03526   1.04273   1.04275   1.04482   1.04541
 Alpha virt. eigenvalues --    1.06052   1.06053   1.06394   1.06703   1.06704
 Alpha virt. eigenvalues --    1.07044   1.07344   1.07346   1.08456   1.08457
 Alpha virt. eigenvalues --    1.08611   1.11877   1.11881   1.12004   1.12125
 Alpha virt. eigenvalues --    1.12128   1.12830   1.13674   1.13675   1.13963
 Alpha virt. eigenvalues --    1.14968   1.14969   1.17291   1.17292   1.17359
 Alpha virt. eigenvalues --    1.19270   1.19876   1.19876   1.21008   1.21011
 Alpha virt. eigenvalues --    1.21322   1.21452   1.21812   1.21813   1.23264
 Alpha virt. eigenvalues --    1.23531   1.25248   1.25251   1.26903   1.26905
 Alpha virt. eigenvalues --    1.27240   1.27920   1.29119   1.29120   1.30223
 Alpha virt. eigenvalues --    1.30305   1.30308   1.30723   1.30725   1.30926
 Alpha virt. eigenvalues --    1.32635   1.32636   1.32945   1.33752   1.33759
 Alpha virt. eigenvalues --    1.35432   1.35434   1.36200   1.36201   1.36302
 Alpha virt. eigenvalues --    1.37364   1.37411   1.37412   1.38254   1.38664
 Alpha virt. eigenvalues --    1.39068   1.39068   1.39248   1.39604   1.39604
 Alpha virt. eigenvalues --    1.40474   1.40474   1.41358   1.41359   1.41378
 Alpha virt. eigenvalues --    1.41402   1.41974   1.41975   1.43168   1.43222
 Alpha virt. eigenvalues --    1.43222   1.43453   1.43678   1.43681   1.43795
 Alpha virt. eigenvalues --    1.44141   1.44141   1.45384   1.45385   1.45832
 Alpha virt. eigenvalues --    1.45833   1.45839   1.46594   1.46662   1.46665
 Alpha virt. eigenvalues --    1.47572   1.47574   1.47684   1.47684   1.47765
 Alpha virt. eigenvalues --    1.48143   1.49075   1.49171   1.49173   1.49566
 Alpha virt. eigenvalues --    1.49601   1.49602   1.50374   1.50375   1.50412
 Alpha virt. eigenvalues --    1.50966   1.50967   1.50970   1.51699   1.52377
 Alpha virt. eigenvalues --    1.52378   1.52656   1.53484   1.53818   1.53819
 Alpha virt. eigenvalues --    1.54989   1.55918   1.55919   1.56909   1.56910
 Alpha virt. eigenvalues --    1.57182   1.57957   1.59107   1.59107   1.59245
 Alpha virt. eigenvalues --    1.60266   1.60268   1.62523   1.62526   1.63104
 Alpha virt. eigenvalues --    1.63733   1.63735   1.65398   1.65399   1.66261
 Alpha virt. eigenvalues --    1.66262   1.66416   1.66448   1.67092   1.67277
 Alpha virt. eigenvalues --    1.67279   1.67518   1.67691   1.67693   1.68949
 Alpha virt. eigenvalues --    1.69509   1.69512   1.69671   1.69673   1.70323
 Alpha virt. eigenvalues --    1.71755   1.71756   1.72465   1.72607   1.72608
 Alpha virt. eigenvalues --    1.72940   1.73524   1.73525   1.74632   1.75067
 Alpha virt. eigenvalues --    1.75127   1.75128   1.76255   1.76996   1.76998
 Alpha virt. eigenvalues --    1.78114   1.78116   1.78776   1.79042   1.79062
 Alpha virt. eigenvalues --    1.80840   1.80842   1.81900   1.82538   1.82539
 Alpha virt. eigenvalues --    1.82713   1.83071   1.83661   1.83661   1.84257
 Alpha virt. eigenvalues --    1.84259   1.86271   1.86273   1.86569   1.86570
 Alpha virt. eigenvalues --    1.87298   1.89308   1.89310   1.91663   1.91663
 Alpha virt. eigenvalues --    1.93590   1.93924   1.94094   1.96019   1.96021
 Alpha virt. eigenvalues --    1.96140   1.96144   1.97528   1.97529   1.97690
 Alpha virt. eigenvalues --    1.97904   1.98976   1.98978   1.99795   1.99796
 Alpha virt. eigenvalues --    2.00237   2.00239   2.00372   2.01824   2.02295
 Alpha virt. eigenvalues --    2.02862   2.02863   2.03881   2.03884   2.04622
 Alpha virt. eigenvalues --    2.04623   2.05516   2.05610   2.05612   2.07008
 Alpha virt. eigenvalues --    2.07010   2.07655   2.08593   2.08594   2.09429
 Alpha virt. eigenvalues --    2.10849   2.10849   2.11967   2.11967   2.12313
 Alpha virt. eigenvalues --    2.13262   2.13383   2.14227   2.14229   2.15804
 Alpha virt. eigenvalues --    2.15804   2.15921   2.17580   2.17580   2.19364
 Alpha virt. eigenvalues --    2.19365   2.19564   2.19617   2.20727   2.20728
 Alpha virt. eigenvalues --    2.22444   2.22446   2.23288   2.24274   2.24417
 Alpha virt. eigenvalues --    2.24418   2.26007   2.26622   2.26798   2.26799
 Alpha virt. eigenvalues --    2.27449   2.27451   2.28312   2.28958   2.28959
 Alpha virt. eigenvalues --    2.29654   2.30016   2.30018   2.32098   2.32099
 Alpha virt. eigenvalues --    2.33665   2.33666   2.35429   2.35936   2.35937
 Alpha virt. eigenvalues --    2.36589   2.38063   2.38064   2.38644   2.39520
 Alpha virt. eigenvalues --    2.39522   2.40037   2.40586   2.42813   2.43095
 Alpha virt. eigenvalues --    2.43781   2.43784   2.43996   2.43998   2.44737
 Alpha virt. eigenvalues --    2.44905   2.45730   2.45733   2.46579   2.46580
 Alpha virt. eigenvalues --    2.47452   2.48850   2.49428   2.49628   2.49629
 Alpha virt. eigenvalues --    2.50274   2.50277   2.51853   2.51854   2.52375
 Alpha virt. eigenvalues --    2.53486   2.53487   2.53754   2.54348   2.54598
 Alpha virt. eigenvalues --    2.54600   2.55371   2.55587   2.56180   2.56181
 Alpha virt. eigenvalues --    2.57842   2.58975   2.58976   2.62394   2.62395
 Alpha virt. eigenvalues --    2.62689   2.62700   2.63608   2.63894   2.63895
 Alpha virt. eigenvalues --    2.65961   2.65962   2.66512   2.66515   2.68188
 Alpha virt. eigenvalues --    2.70379   2.70379   2.71046   2.72562   2.72562
 Alpha virt. eigenvalues --    2.72639   2.75414   2.75416   2.76336   2.76705
 Alpha virt. eigenvalues --    2.76936   2.76936   2.79139   2.80572   2.80573
 Alpha virt. eigenvalues --    2.81452   2.82301   2.82302   2.83396   2.83519
 Alpha virt. eigenvalues --    2.83522   2.86402   2.86404   2.87242   2.87243
 Alpha virt. eigenvalues --    2.87446   2.89596   2.89597   2.90506   2.90508
 Alpha virt. eigenvalues --    2.92743   2.92744   2.92786   2.94391   2.94724
 Alpha virt. eigenvalues --    2.95615   2.95875   2.95876   2.96593   2.97436
 Alpha virt. eigenvalues --    2.97436   2.97813   2.98786   2.98787   3.00205
 Alpha virt. eigenvalues --    3.00653   3.00656   3.00873   3.01072   3.01072
 Alpha virt. eigenvalues --    3.01243   3.01376   3.01376   3.02898   3.02901
 Alpha virt. eigenvalues --    3.03500   3.03991   3.03994   3.04557   3.05413
 Alpha virt. eigenvalues --    3.05414   3.06495   3.06497   3.06595   3.06766
 Alpha virt. eigenvalues --    3.06778   3.06780   3.08221   3.08388   3.09380
 Alpha virt. eigenvalues --    3.09381   3.09659   3.10142   3.10143   3.12164
 Alpha virt. eigenvalues --    3.12887   3.12889   3.12908   3.13635   3.14539
 Alpha virt. eigenvalues --    3.14540   3.15064   3.15064   3.16168   3.16169
 Alpha virt. eigenvalues --    3.16353   3.16562   3.17808   3.17809   3.18620
 Alpha virt. eigenvalues --    3.18700   3.19404   3.19405   3.20294   3.22538
 Alpha virt. eigenvalues --    3.25521   3.25523   3.31358   3.31360   3.33190
 Alpha virt. eigenvalues --    3.41841   3.42715   3.42719   3.45306   3.45507
 Alpha virt. eigenvalues --    3.45509   3.47860   3.49694   3.49695   3.50623
 Alpha virt. eigenvalues --    3.50627   3.51872   3.52388   3.54318   3.54874
 Alpha virt. eigenvalues --    3.54876   3.56684   3.56688   3.58343   3.58346
 Alpha virt. eigenvalues --    3.58822   3.60093   3.60145   3.60539   3.60541
 Alpha virt. eigenvalues --    3.62605   3.62611   3.65981   3.66974   3.66978
 Alpha virt. eigenvalues --    3.68891   3.73162   3.73165   3.74945   3.75892
 Alpha virt. eigenvalues --    3.75893   3.76974   3.77715   3.77716   3.80365
 Alpha virt. eigenvalues --    3.80367   3.80382   3.83227   3.83228   3.84139
 Alpha virt. eigenvalues --    3.84140   3.86151   3.87832   3.87833   3.87978
 Alpha virt. eigenvalues --    3.90090   3.90092   3.91980   3.93153   3.94445
 Alpha virt. eigenvalues --    3.94447   3.99713   3.99714   4.02729   4.17783
 Alpha virt. eigenvalues --    4.21299   4.21300   4.24045   4.24046   4.29230
 Alpha virt. eigenvalues --    4.38536   4.38538   4.40572   4.44357   4.44360
 Alpha virt. eigenvalues --    4.51865   4.51867   4.60190   4.62661   4.62667
 Alpha virt. eigenvalues --    4.67490   4.67852   4.72880   4.72884   4.79774
 Alpha virt. eigenvalues --    4.84277   4.84281   4.89137   4.92306   4.92308
 Alpha virt. eigenvalues --    4.97371   4.97377   4.97854   4.98835   5.02855
 Alpha virt. eigenvalues --   23.00002  23.21720  23.22625  23.22626  23.47035
 Alpha virt. eigenvalues --   23.47036  23.47791  23.50589  23.50593  23.66310
 Alpha virt. eigenvalues --   23.66314  23.69267  23.71486  23.71487  23.72070
 Alpha virt. eigenvalues --   23.76713  23.80412  23.82484  23.82486  23.85294
 Alpha virt. eigenvalues --   23.87315  23.88825  23.88832  23.90234  23.90341
 Alpha virt. eigenvalues --   23.90346  23.92477  23.92481  23.93093  23.94553
 Alpha virt. eigenvalues --   23.94553  23.94844  23.96064  23.96065  23.96142
 Alpha virt. eigenvalues --   23.98832  23.98834  24.00790  24.00794  24.01845
 Alpha virt. eigenvalues --   24.01846  24.04379  24.05284  24.05286  24.06213
 Alpha virt. eigenvalues --   24.06218  24.07366  24.09583  24.09729  24.10292
 Alpha virt. eigenvalues --   24.10293  24.12456  24.13226  24.13793  24.13794
 Alpha virt. eigenvalues --   24.14653  24.14656  24.18413  24.18469  24.18471
          Condensed to atoms (all electrons):
 Mulliken charges:
               1
     1  C   -0.021214
     2  C   -0.023248
     3  C    0.010558
     4  C   -0.007304
     5  C    0.003526
     6  C   -0.003749
     7  C   -0.000759
     8  C    0.003858
     9  C   -0.000740
    10  C   -0.003843
    11  C    0.032551
    12  C    0.005800
    13  C    0.003510
    14  C   -0.007381
    15  C    0.010618
    16  C    0.032506
    17  C    0.005808
    18  C    0.005983
    19  C    0.032413
    20  C    0.010574
    21  C   -0.023270
    22  C    0.003913
    23  C   -0.000784
    24  C    0.003982
    25  C   -0.023215
    26  C   -0.021252
    27  C    0.003539
    28  C    0.005849
    29  C    0.032485
    30  C   -0.003721
    31  C   -0.021149
    32  C   -0.023306
    33  C    0.003872
    34  C   -0.000727
    35  C   -0.003852
    36  C   -0.021235
    37  C    0.003532
    38  C   -0.007290
    39  C   -0.007356
    40  C    0.003476
    41  C   -0.021171
    42  C   -0.003740
    43  C    0.032442
    44  C    0.010522
    45  C   -0.007342
    46  C   -0.007327
    47  C    0.010514
    48  C   -0.023207
    49  C    0.003862
    50  C   -0.000721
    51  C   -0.000757
    52  C    0.003930
    53  C   -0.023240
    54  C    0.010456
    55  C    0.032624
    56  C    0.005777
    57  C    0.005928
    58  C    0.003478
    59  C   -0.021186
    60  C   -0.003802
 Sum of Mulliken charges =  -0.00000
 Mulliken charges with hydrogens summed into heavy atoms:
               1
     1  C   -0.021214
     2  C   -0.023248
     3  C    0.010558
     4  C   -0.007304
     5  C    0.003526
     6  C   -0.003749
     7  C   -0.000759
     8  C    0.003858
     9  C   -0.000740
    10  C   -0.003843
    11  C    0.032551
    12  C    0.005800
    13  C    0.003510
    14  C   -0.007381
    15  C    0.010618
    16  C    0.032506
    17  C    0.005808
    18  C    0.005983
    19  C    0.032413
    20  C    0.010574
    21  C   -0.023270
    22  C    0.003913
    23  C   -0.000784
    24  C    0.003982
    25  C   -0.023215
    26  C   -0.021252
    27  C    0.003539
    28  C    0.005849
    29  C    0.032485
    30  C   -0.003721
    31  C   -0.021149
    32  C   -0.023306
    33  C    0.003872
    34  C   -0.000727
    35  C   -0.003852
    36  C   -0.021235
    37  C    0.003532
    38  C   -0.007290
    39  C   -0.007356
    40  C    0.003476
    41  C   -0.021171
    42  C   -0.003740
    43  C    0.032442
    44  C    0.010522
    45  C   -0.007342
    46  C   -0.007327
    47  C    0.010514
    48  C   -0.023207
    49  C    0.003862
    50  C   -0.000721
    51  C   -0.000757
    52  C    0.003930
    53  C   -0.023240
    54  C    0.010456
    55  C    0.032624
    56  C    0.005777
    57  C    0.005928
    58  C    0.003478
    59  C   -0.021186
    60  C   -0.003802
 Electronic spatial extent (au):  <R**2>=          17064.8210
 Charge=             -0.0000 electrons
 Dipole moment (field-independent basis, Debye):
    X=              0.0000    Y=              0.0002    Z=             -0.0001  Tot=              0.0002
 Quadrupole moment (field-independent basis, Debye-Ang):
   XX=           -336.0075   YY=           -335.7723   ZZ=           -335.5963
   XY=              0.3209   XZ=             -0.1525   YZ=              0.1053
 Traceless Quadrupole moment (field-independent basis, Debye-Ang):
   XX=             -0.2154   YY=              0.0198   ZZ=              0.1957
   XY=              0.3209   XZ=             -0.1525   YZ=              0.1053
 Octapole moment (field-independent basis, Debye-Ang**2):
  XXX=              0.3277  YYY=             -2.0985  ZZZ=              2.7236  XYY=             -1.0450
  XXY=             -0.1890  XXZ=             -1.4014  XZZ=              0.7212  YZZ=              2.2939
  YYZ=             -1.3270  XYZ=             -1.6667
 Hexadecapole moment (field-independent basis, Debye-Ang**3):
 XXXX=          -9625.4544 YYYY=          -8840.5761 ZZZZ=          -8239.3608 XXXY=            534.9884
 XXXZ=           -246.9834 YYYX=            542.5236 YYYZ=            175.9128 ZZZX=           -253.4187
 ZZZY=            177.2254 XXYY=          -3071.3446 XXZZ=          -2979.2759 YYZZ=          -2846.3582
 XXYZ=             54.2106 YYXZ=            -81.2520 ZZXY=            181.7218
 N-N= 8.319034220133D+03 E-N=-2.193760968035D+04  KE= 2.276739127498D+03
 There are a total of     1350600 grid points.
 ElSum from          density=      359.9998514577
 ElSum from atomic densities=      359.9998170713
 Hirshfeld populations at iteration   1 (CA, CB, DipXYZ):
               1          2          3          4          5
     1  C    3.003554   3.003554  -0.061921  -0.002094   0.010307
     2  C    3.002521   3.002521  -0.061332  -0.004177  -0.014234
     3  C    2.999587   2.999587   0.004449  -0.040625  -0.043523
     4  C    2.997699   2.997699  -0.063738  -0.004048   0.002685
     5  C    3.002106   3.002106   0.008293  -0.060301   0.010095
     6  C    3.001482   3.001482  -0.027874   0.019033   0.028630
     7  C    2.998138   2.998138  -0.038217   0.003772  -0.003789
     8  C    3.001753   3.001753  -0.045895   0.026832  -0.000337
     9  C    2.998142   2.998142  -0.019488   0.019941  -0.026650
    10  C    3.001483   3.001483  -0.034079  -0.014278  -0.024375
    11  C    2.996643   2.996643   0.001122  -0.017962  -0.016252
    12  C    2.996511   2.996511  -0.008408   0.001165  -0.019273
    13  C    3.002116   3.002116  -0.050144  -0.010699  -0.034364
    14  C    2.997690   2.997690   0.030950  -0.051578  -0.021664
    15  C    2.999582   2.999582  -0.047018  -0.031599   0.018870
    16  C    2.996643   2.996643  -0.019517  -0.013275   0.005610
    17  C    2.996516   2.996516   0.000058  -0.015359   0.014471
    18  C    2.996524   2.996524  -0.019369  -0.001753   0.008177
    19  C    2.996630   2.996630  -0.004381  -0.007973   0.022450
    20  C    2.999588   2.999588  -0.014421  -0.022910   0.053204
    21  C    3.002508   3.002508  -0.036372   0.047418   0.020262
    22  C    3.001752   3.001752  -0.032182   0.039170  -0.015925
    23  C    2.998138   2.998138  -0.021473   0.031682   0.004848
    24  C    3.001748   3.001748  -0.043734   0.019241  -0.023114
    25  C    3.002499   3.002499  -0.020868   0.039751  -0.044337
    26  C    3.003576   3.003576  -0.027274   0.017868  -0.053683
    27  C    3.002094   3.002094   0.054981  -0.010339  -0.026094
    28  C    2.996523   2.996523   0.010993  -0.012422  -0.012975
    29  C    2.996635   2.996635   0.002072   0.003980  -0.023848
    30  C    3.001485   3.001485   0.037796  -0.002129  -0.022856
    31  C    3.003539   3.003539   0.033675  -0.045810  -0.026650
    32  C    3.002520   3.002520   0.024938  -0.057554  -0.006841
    33  C    3.001746   3.001746   0.045611  -0.027258   0.000173
    34  C    2.998145   2.998145   0.018990  -0.020860   0.026345
    35  C    3.001482   3.001482  -0.000326  -0.044084   0.004500
    36  C    3.003576   3.003576   0.013934  -0.040466   0.046014
    37  C    3.002086   3.002086  -0.044365   0.028348   0.032201
    38  C    2.997698   2.997698   0.019155  -0.035474   0.049581
    39  C    2.997681   2.997681  -0.024218   0.057513   0.013743
    40  C    3.002111   3.002111   0.037935  -0.000168   0.048697
    41  C    3.003548   3.003548  -0.018310   0.059458   0.008624
    42  C    3.001485   3.001485   0.001861   0.037307  -0.023689
    43  C    2.996633   2.996633   0.019137   0.014841  -0.001084
    44  C    2.999601   2.999601   0.045368   0.038797   0.001710
    45  C    2.997699   2.997699  -0.024986   0.025610  -0.053014
    46  C    2.997694   2.997694   0.062867   0.007986   0.008562
    47  C    2.999601   2.999601   0.003795   0.004817  -0.059415
    48  C    3.002498   3.002498   0.062895  -0.002489  -0.004925
    49  C    3.001758   3.001758   0.044108  -0.019020   0.022805
    50  C    2.998130   2.998130   0.022043  -0.031152  -0.005542
    51  C    2.998143   2.998143   0.038145  -0.003427   0.004809
    52  C    3.001750   3.001750   0.032163  -0.038986   0.016400
    53  C    3.002518   3.002518   0.030794  -0.022916   0.050133
    54  C    2.999594   2.999594   0.007881   0.051565   0.029098
    55  C    2.996635   2.996635   0.001572   0.020323   0.013059
    56  C    2.996509   2.996509   0.018024   0.007346   0.007969
    57  C    2.996528   2.996528  -0.001360   0.020995   0.001712
    58  C    3.002103   3.002103  -0.006627   0.053197  -0.030590
    59  C    3.003569   3.003569   0.059888   0.011058   0.015436
    60  C    3.001478   3.001478   0.022571   0.004115   0.037853
       Tot 179.999926 179.999926   0.000163  -0.000056  -0.000014

 Dip from Atomic Chgs             -0.000159   0.000142   0.000226
         Total Dipole              0.000004   0.000086   0.000212

 Hirshfeld charges, spin densities, dipoles, and CM5 charges using IRadAn=      5:
              Q-H        S-H        Dx         Dy         Dz        Q-CM5   
     1  C   -0.007109   0.000000  -0.061921  -0.002094   0.010307  -0.007109
     2  C   -0.005042   0.000000  -0.061332  -0.004177  -0.014234  -0.005042
     3  C    0.000826   0.000000   0.004449  -0.040625  -0.043523   0.000826
     4  C    0.004602   0.000000  -0.063738  -0.004048   0.002685   0.004602
     5  C   -0.004212   0.000000   0.008293  -0.060301   0.010095  -0.004212
     6  C   -0.002965   0.000000  -0.027874   0.019033   0.028630  -0.002965
     7  C    0.003725   0.000000  -0.038217   0.003772  -0.003789   0.003725
     8  C   -0.003505   0.000000  -0.045895   0.026832  -0.000337  -0.003505
     9  C    0.003717   0.000000  -0.019488   0.019941  -0.026650   0.003717
    10  C   -0.002966   0.000000  -0.034079  -0.014278  -0.024375  -0.002966
    11  C    0.006713   0.000000   0.001122  -0.017962  -0.016252   0.006713
    12  C    0.006977   0.000000  -0.008408   0.001165  -0.019273   0.006977
    13  C   -0.004232   0.000000  -0.050144  -0.010699  -0.034364  -0.004232
    14  C    0.004619   0.000000   0.030950  -0.051578  -0.021664   0.004619
    15  C    0.000837   0.000000  -0.047018  -0.031599   0.018870   0.000837
    16  C    0.006714   0.000000  -0.019517  -0.013275   0.005610   0.006714
    17  C    0.006967   0.000000   0.000058  -0.015359   0.014471   0.006967
    18  C    0.006953   0.000000  -0.019369  -0.001753   0.008177   0.006953
    19  C    0.006741   0.000000  -0.004381  -0.007973   0.022450   0.006741
    20  C    0.000824   0.000000  -0.014421  -0.022910   0.053204   0.000824
    21  C   -0.005015   0.000000  -0.036372   0.047418   0.020262  -0.005015
    22  C   -0.003504   0.000000  -0.032182   0.039170  -0.015925  -0.003504
    23  C    0.003724   0.000000  -0.021473   0.031682   0.004848   0.003724
    24  C   -0.003496   0.000000  -0.043734   0.019241  -0.023114  -0.003496
    25  C   -0.004997   0.000000  -0.020868   0.039751  -0.044337  -0.004997
    26  C   -0.007152   0.000000  -0.027274   0.017868  -0.053683  -0.007152
    27  C   -0.004189   0.000000   0.054981  -0.010339  -0.026094  -0.004189
    28  C    0.006953   0.000000   0.010993  -0.012422  -0.012975   0.006953
    29  C    0.006730   0.000000   0.002072   0.003980  -0.023848   0.006730
    30  C   -0.002969   0.000000   0.037796  -0.002129  -0.022856  -0.002969
    31  C   -0.007079   0.000000   0.033675  -0.045810  -0.026650  -0.007079
    32  C   -0.005040   0.000000   0.024938  -0.057554  -0.006841  -0.005040
    33  C   -0.003493   0.000000   0.045611  -0.027258   0.000173  -0.003493
    34  C    0.003711   0.000000   0.018990  -0.020860   0.026345   0.003711
    35  C   -0.002965   0.000000  -0.000326  -0.044084   0.004500  -0.002965
    36  C   -0.007152   0.000000   0.013934  -0.040466   0.046014  -0.007152
    37  C   -0.004173   0.000000  -0.044365   0.028348   0.032201  -0.004173
    38  C    0.004603   0.000000   0.019155  -0.035474   0.049581   0.004603
    39  C    0.004637   0.000000  -0.024218   0.057513   0.013743   0.004637
    40  C   -0.004223   0.000000   0.037935  -0.000168   0.048697  -0.004223
    41  C   -0.007096   0.000000  -0.018310   0.059458   0.008624  -0.007096
    42  C   -0.002970   0.000000   0.001861   0.037307  -0.023689  -0.002970
    43  C    0.006735   0.000000   0.019137   0.014841  -0.001084   0.006735
    44  C    0.000797   0.000000   0.045368   0.038797   0.001710   0.000797
    45  C    0.004602   0.000000  -0.024986   0.025610  -0.053014   0.004602
    46  C    0.004612   0.000000   0.062867   0.007986   0.008562   0.004612
    47  C    0.000797   0.000000   0.003795   0.004817  -0.059415   0.000797
    48  C   -0.004996   0.000000   0.062895  -0.002489  -0.004925  -0.004996
    49  C   -0.003516   0.000000   0.044108  -0.019020   0.022805  -0.003516
    50  C    0.003740   0.000000   0.022043  -0.031152  -0.005542   0.003740
    51  C    0.003715   0.000000   0.038145  -0.003427   0.004809   0.003715
    52  C   -0.003501   0.000000   0.032163  -0.038986   0.016400  -0.003501
    53  C   -0.005036   0.000000   0.030794  -0.022916   0.050133  -0.005036
    54  C    0.000812   0.000000   0.007881   0.051565   0.029098   0.000812
    55  C    0.006729   0.000000   0.001572   0.020323   0.013059   0.006729
    56  C    0.006983   0.000000   0.018024   0.007346   0.007969   0.006983
    57  C    0.006945   0.000000  -0.001360   0.020995   0.001712   0.006945
    58  C   -0.004205   0.000000  -0.006627   0.053197  -0.030590  -0.004205
    59  C   -0.007137   0.000000   0.059888   0.011058   0.015436  -0.007137
    60  C   -0.002956   0.000000   0.022571   0.004115   0.037853  -0.002956
       Tot   0.000149   0.000000   0.000163  -0.000056  -0.000014   0.000149
 Hirshfeld charges with hydrogens summed into heavy atoms:
              Q-H       Q-CM5   
     1  C   -0.007109  -0.007109
     2  C   -0.005042  -0.005042
     3  C    0.000826   0.000826
     4  C    0.004602   0.004602
     5  C   -0.004212  -0.004212
     6  C   -0.002965  -0.002965
     7  C    0.003725   0.003725
     8  C   -0.003505  -0.003505
     9  C    0.003717   0.003717
    10  C   -0.002966  -0.002966
    11  C    0.006713   0.006713
    12  C    0.006977   0.006977
    13  C   -0.004232  -0.004232
    14  C    0.004619   0.004619
    15  C    0.000837   0.000837
    16  C    0.006714   0.006714
    17  C    0.006967   0.006967
    18  C    0.006953   0.006953
    19  C    0.006741   0.006741
    20  C    0.000824   0.000824
    21  C   -0.005015  -0.005015
    22  C   -0.003504  -0.003504
    23  C    0.003724   0.003724
    24  C   -0.003496  -0.003496
    25  C   -0.004997  -0.004997
    26  C   -0.007152  -0.007152
    27  C   -0.004189  -0.004189
    28  C    0.006953   0.006953
    29  C    0.006730   0.006730
    30  C   -0.002969  -0.002969
    31  C   -0.007079  -0.007079
    32  C   -0.005040  -0.005040
    33  C   -0.003493  -0.003493
    34  C    0.003711   0.003711
    35  C   -0.002965  -0.002965
    36  C   -0.007152  -0.007152
    37  C   -0.004173  -0.004173
    38  C    0.004603   0.004603
    39  C    0.004637   0.004637
    40  C   -0.004223  -0.004223
    41  C   -0.007096  -0.007096
    42  C   -0.002970  -0.002970
    43  C    0.006735   0.006735
    44  C    0.000797   0.000797
    45  C    0.004602   0.004602
    46  C    0.004612   0.004612
    47  C    0.000797   0.000797
    48  C   -0.004996  -0.004996
    49  C   -0.003516  -0.003516
    50  C    0.003740   0.003740
    51  C    0.003715   0.003715
    52  C   -0.003501  -0.003501
    53  C   -0.005036  -0.005036
    54  C    0.000812   0.000812
    55  C    0.006729   0.006729
    56  C    0.006983   0.006983
    57  C    0.006945   0.006945
    58  C   -0.004205  -0.004205
    59  C   -0.007137  -0.007137
    60  C   -0.002956  -0.002956
 
 EQQ=  0.00000000000     EQD=  0.00000000000     EDD= 0.730585960689E-02
 EQQ+QD+DD= 0.730585960689E-02
 
 1\1\GINC-CU15\SP\RB3LYP\6-311G(d)\C60\WANG\06-Jun-2025\0\\# B3LYP/6-31
 1G* Pop=Hirshfeld NOSYMM\\From ../B3LYP_opt/C60_1811.out\\0,1\C,0,-3.5
 07651,-0.984283,0.304402\C,0,-3.544852,-0.622553,-1.126187\C,0,-2.6507
 97,-1.441053,-1.820926\C,0,-2.229678,-2.466726,-0.862065\C,0,-2.66812,
 -2.072682,0.490759\C,0,-3.42913,0.208285,1.071656\C,0,-3.554102,1.3268
 5,0.141444\C,0,-3.550258,0.789112,-1.222287\C,0,-2.75946,1.373094,-2.2
 16298\C,0,-1.883411,0.526302,-3.021108\C,0,-1.703016,-0.868185,-2.7493
 84\C,0,-0.351281,-1.441364,-2.820158\C,0,-0.133121,-2.678864,-2.112463
 \C,0,-1.052558,-3.100666,-1.038032\C,0,-0.268906,-3.511466,0.130698\C,
 0,-0.560534,-2.971366,1.439055\C,0,-1.751582,-2.125585,1.602941\C,0,-1
 .737012,-0.968317,2.490129\C,0,-2.527591,0.2326,2.18417\C,0,-1.967193,
 1.528435,2.492822\C,0,-2.173904,2.611886,1.635275\C,0,-2.868071,2.5158
 75,0.406082\C,0,-2.035202,3.143218,-0.624265\C,0,-2.04446,2.617919,-1.
 919763\C,0,-0.816537,2.58462,-2.621931\C,0,-0.733355,1.296893,-3.33858
 9\C,0,0.561948,0.805371,-3.269713\C,0,0.816837,-0.592371,-3.022562\C,0
 ,2.115191,-0.932173,-2.422958\C,0,2.263189,-2.185783,-1.74652\C,0,1.13
 3114,-3.043331,-1.678957\C,0,1.050807,-3.607944,-0.317599\C,0,2.164098
 ,-3.14023,0.41987\C,0,1.945896,-2.753095,1.745389\C,0,0.58262,-2.73277
 ,2.26813\C,0,0.51196,-1.672445,3.210425\C,0,-0.54524,-0.777058,3.27929
 3\C,0,0.076115,0.556922,3.388795\C,0,-0.581671,1.651446,2.95541\C,0,0.
 113898,2.661835,2.134983\C,0,-0.877637,3.26992,1.379224\C,0,-0.762169,
 3.517002,-0.014575\C,0,0.49704,3.248842,-0.641935\C,0,0.420286,2.85088
 3,-2.029131\C,0,1.340079,1.845252,-2.569085\C,0,2.447873,1.51402,-1.87
 5121\C,0,2.949336,0.137456,-1.924302\C,0,3.694678,-0.032247,-0.754834\
 C,0,3.644166,-1.199537,0.043195\C,0,2.973962,-2.310602,-0.477192\C,0,3
 .428821,-0.779512,1.431032\C,0,2.654484,-1.583302,2.272939\C,0,1.78974
 8,-0.933866,3.185315\C,0,1.517481,0.436056,3.150724\C,0,2.178942,1.290
 288,2.190885\C,0,1.413045,2.382967,1.574389\C,0,1.609862,2.744523,0.17
 5459\C,0,2.670688,2.061435,-0.522929\C,0,3.473582,1.133244,0.123535\C,
 0,3.228752,0.666829,1.442445\\Version=ES64L-G16RevB.01\HF=-2286.397307
 5\RMSD=5.660e-09\Dipole=0.000017,0.0000812,-0.0000197\Quadrupole=-0.16
 01712,0.0146861,0.1454851,0.2385638,-0.1134123,0.0782586\PG=C01 [X(C60
 )]\\@


     "IF I COULD JUST GET IT ON PAPER"
 LIFE AND INK, THEY RUN OUT AT THE SAME TIME,
 OR SO SAID MY OLD FRIEND THE SQUID.
     -- JIMMY BUFFETT, 1981
 Job cpu time:       0 days  1 hours 46 minutes 46.8 seconds.
 Elapsed time:       0 days  0 hours  5 minutes 58.0 seconds.
 File lengths (MBytes):  RWF=    631 Int=      0 D2E=      0 Chk=     68 Scr=      1
 Normal termination of Gaussian 16 at Fri Jun  6 05:47:49 2025.
