 Entering Gaussian System, Link 0=g16
 Initial command:
 /opt/software/g16/l1.exe "/tmp/C60_1083_sgp-6529.tmp/Gau-67681.inp" -scrdir="/tmp/C60_1083_sgp-6529.tmp/"
 Entering Link 1 = /opt/software/g16/l1.exe PID=     67686.
  
 Copyright (c) 1988-2017, Gaussian, Inc.  All Rights Reserved.
  
 This is part of the Gaussian(R) 16 program.  It is based on
 the Gaussian(R) 09 system (copyright 2009, Gaussian, Inc.),
 the Gaussian(R) 03 system (copyright 2003, Gaussian, Inc.),
 the Gaussian(R) 98 system (copyright 1998, Gaussian, Inc.),
 the Gaussian(R) 94 system (copyright 1995, Gaussian, Inc.),
 the Gaussian 92(TM) system (copyright 1992, Gaussian, Inc.),
 the Gaussian 90(TM) system (copyright 1990, Gaussian, Inc.),
 the Gaussian 88(TM) system (copyright 1988, Gaussian, Inc.),
 the Gaussian 86(TM) system (copyright 1986, Carnegie Mellon
 University), and the Gaussian 82(TM) system (copyright 1983,
 Carnegie Mellon University). Gaussian is a federally registered
 trademark of Gaussian, Inc.
  
 This software contains proprietary and confidential information,
 including trade secrets, belonging to Gaussian, Inc.
  
 This software is provided under written license and may be
 used, copied, transmitted, or stored only in accord with that
 written license.
  
 The following legend is applicable only to US Government
 contracts under FAR:
  
                    RESTRICTED RIGHTS LEGEND
  
 Use, reproduction and disclosure by the US Government is
 subject to restrictions as set forth in subparagraphs (a)
 and (c) of the Commercial Computer Software - Restricted
 Rights clause in FAR 52.227-19.
  
 Gaussian, Inc.
 340 Quinnipiac St., Bldg. 40, Wallingford CT 06492
  
  
 ---------------------------------------------------------------
 Warning -- This program may not be used in any manner that
 competes with the business of Gaussian, Inc. or will provide
 assistance to any competitor of Gaussian, Inc.  The licensee
 of this program is prohibited from giving any competitor of
 Gaussian, Inc. access to this program.  By using this program,
 the user acknowledges that Gaussian, Inc. is engaged in the
 business of creating and licensing software in the field of
 computational chemistry and represents and warrants to the
 licensee that it is not a competitor of Gaussian, Inc. and that
 it will not use this program in any manner prohibited above.
 ---------------------------------------------------------------
  

 Cite this work as:
 Gaussian 16, Revision B.01,
 M. J. Frisch, G. W. Trucks, H. B. Schlegel, G. E. Scuseria, 
 M. A. Robb, J. R. Cheeseman, G. Scalmani, V. Barone, 
 G. A. Petersson, H. Nakatsuji, X. Li, M. Caricato, A. V. Marenich, 
 J. Bloino, B. G. Janesko, R. Gomperts, B. Mennucci, H. P. Hratchian, 
 J. V. Ortiz, A. F. Izmaylov, J. L. Sonnenberg, D. Williams-Young, 
 F. Ding, F. Lipparini, F. Egidi, J. Goings, B. Peng, A. Petrone, 
 T. Henderson, D. Ranasinghe, V. G. Zakrzewski, J. Gao, N. Rega, 
 G. Zheng, W. Liang, M. Hada, M. Ehara, K. Toyota, R. Fukuda, 
 J. Hasegawa, M. Ishida, T. Nakajima, Y. Honda, O. Kitao, H. Nakai, 
 T. Vreven, K. Throssell, J. A. Montgomery, Jr., J. E. Peralta, 
 F. Ogliaro, M. J. Bearpark, J. J. Heyd, E. N. Brothers, K. N. Kudin, 
 V. N. Staroverov, T. A. Keith, R. Kobayashi, J. Normand, 
 K. Raghavachari, A. P. Rendell, J. C. Burant, S. S. Iyengar, 
 J. Tomasi, M. Cossi, J. M. Millam, M. Klene, C. Adamo, R. Cammi, 
 J. W. Ochterski, R. L. Martin, K. Morokuma, O. Farkas, 
 J. B. Foresman, and D. J. Fox, Gaussian, Inc., Wallingford CT, 2016.
 
 ******************************************
 Gaussian 16:  ES64L-G16RevB.01 20-Dec-2017
                 6-Jun-2025 
 ******************************************
 %nproc=18
 Will use up to   18 processors via shared memory.
 ------------------------------------
 # B3LYP/6-311G* Pop=Hirshfeld NOSYMM
 ------------------------------------
 1/38=1,172=1/1;
 2/12=2,15=1,17=6,18=5,40=1/2;
 3/5=4,6=6,7=1,11=2,25=1,30=1,74=-5/1,2,3;
 4//1;
 5/5=2,38=5/2;
 6/7=2,8=2,9=2,10=2,28=1,79=1/1;
 99/5=1,9=1/99;
 ------------------------------
 From ../B3LYP_opt/C60_1083.out
 ------------------------------
 Symbolic Z-matrix:
 Charge =  0 Multiplicity = 1
 6                    -2.48894  -2.78236  -1.29524 
 6                    -3.30257  -2.69608  -0.1108 
 6                    -3.95165  -1.41718  -0.13712 
 6                    -3.80626  -0.8667   -1.44756 
 6                    -2.76313  -1.66673  -2.12891 
 6                    -1.1438   -3.06044  -0.89657 
 6                    -1.12753  -3.10206   0.57623 
 6                    -2.44637  -2.74777   0.99547 
 6                    -2.6142   -1.5036    1.75364 
 6                    -3.51007  -0.64279   0.98657 
 6                    -3.21288   0.75819   0.84045 
 6                    -3.59255   1.36951  -0.40392 
 6                    -3.81419   0.51039  -1.58935 
 6                    -3.06394   1.08917  -2.65877 
 6                    -1.91108   0.38934  -3.14696 
 6                    -1.68371  -0.98712  -2.79162 
 6                    -0.31652  -1.41866  -2.54262 
 6                    -0.05636  -2.45718  -1.53938 
 6                     1.22979  -2.49379  -0.82412 
 6                     1.26072  -2.565     0.64105 
 6                    -0.02163  -2.65669   1.30508 
 6                    -0.28537  -1.79209   2.46958 
 6                    -1.54612  -0.9921    2.45302 
 6                    -1.41516   0.47257   2.55657 
 6                    -2.08867   1.30625   1.58434 
 6                    -1.29547   2.39376   1.0007 
 6                    -1.68855   2.92792  -0.23209 
 6                    -2.91181   2.52972  -0.85705 
 6                    -2.67976   2.41636  -2.27323 
 6                    -1.30575   2.57228  -2.49068 
 6                    -0.80634   1.34364  -3.11677 
 6                     0.48684   0.94259  -2.87524 
 6                     0.77046  -0.5027   -2.81333 
 6                     2.07247  -0.88477  -2.47965 
 6                     2.33139  -1.95058  -1.49568 
 6                     3.52655  -1.59557  -0.79489 
 6                     3.51177  -1.4922    0.62071 
 6                     2.39289  -2.00481   1.36343 
 6                     2.15486  -1.4176    2.65618 
 6                     0.78917  -1.27083   3.15158 
 6                     0.68099   0.0641    3.74937 
 6                    -0.27592   0.96878   3.19571 
 6                     0.50081   2.08311   2.62449 
 6                     0.12203   2.5569    1.36291 
 6                     1.14447   2.67742   0.31751 
 6                     0.66631   2.68685  -1.04814 
 6                    -0.66908   3.01804  -1.29216 
 6                     1.34485   1.84181  -2.04741 
 6                     2.63159   1.43093  -1.78855 
 6                     3.07119   0.11139  -2.25404 
 6                     4.02836  -0.36633  -1.35125 
 6                     4.15327   0.56669  -0.26892 
 6                     4.04816  -0.15451   0.95997 
 6                     3.57191   0.51082   2.07666 
 6                     2.86239  -0.23862   3.06467 
 6                     1.95401   0.64614   3.73516 
 6                     1.87423   1.84803   2.94696 
 6                     2.84376   1.78946   1.91192 
 6                     2.50371   2.23369   0.58783 
 6                     3.26645   1.67104  -0.49574 
 
 Symmetry turned off by external request.
 Stoichiometry    C60
 Framework group  C1[X(C60)]
 Deg. of freedom   174
 Full point group                 C1      NOp   1
                          Input orientation:                          
 ---------------------------------------------------------------------
 Center     Atomic      Atomic             Coordinates (Angstroms)
 Number     Number       Type             X           Y           Z
 ---------------------------------------------------------------------
      1          6           0       -2.488936   -2.782358   -1.295245
      2          6           0       -3.302566   -2.696078   -0.110799
      3          6           0       -3.951654   -1.417176   -0.137115
      4          6           0       -3.806261   -0.866697   -1.447562
      5          6           0       -2.763131   -1.666727   -2.128907
      6          6           0       -1.143799   -3.060444   -0.896566
      7          6           0       -1.127531   -3.102058    0.576229
      8          6           0       -2.446372   -2.747769    0.995472
      9          6           0       -2.614200   -1.503599    1.753644
     10          6           0       -3.510072   -0.642794    0.986569
     11          6           0       -3.212881    0.758189    0.840449
     12          6           0       -3.592551    1.369510   -0.403922
     13          6           0       -3.814190    0.510388   -1.589345
     14          6           0       -3.063942    1.089174   -2.658767
     15          6           0       -1.911079    0.389335   -3.146961
     16          6           0       -1.683706   -0.987122   -2.791620
     17          6           0       -0.316524   -1.418660   -2.542624
     18          6           0       -0.056363   -2.457181   -1.539381
     19          6           0        1.229785   -2.493794   -0.824124
     20          6           0        1.260721   -2.564996    0.641050
     21          6           0       -0.021627   -2.656693    1.305082
     22          6           0       -0.285373   -1.792093    2.469576
     23          6           0       -1.546120   -0.992104    2.453015
     24          6           0       -1.415163    0.472566    2.556566
     25          6           0       -2.088671    1.306251    1.584335
     26          6           0       -1.295471    2.393760    1.000697
     27          6           0       -1.688545    2.927918   -0.232089
     28          6           0       -2.911814    2.529722   -0.857046
     29          6           0       -2.679764    2.416355   -2.273228
     30          6           0       -1.305754    2.572278   -2.490681
     31          6           0       -0.806335    1.343641   -3.116772
     32          6           0        0.486844    0.942593   -2.875235
     33          6           0        0.770463   -0.502702   -2.813327
     34          6           0        2.072473   -0.884767   -2.479652
     35          6           0        2.331389   -1.950580   -1.495683
     36          6           0        3.526553   -1.595574   -0.794885
     37          6           0        3.511771   -1.492204    0.620712
     38          6           0        2.392888   -2.004811    1.363431
     39          6           0        2.154862   -1.417603    2.656179
     40          6           0        0.789174   -1.270829    3.151579
     41          6           0        0.680986    0.064098    3.749366
     42          6           0       -0.275917    0.968776    3.195715
     43          6           0        0.500812    2.083113    2.624493
     44          6           0        0.122025    2.556899    1.362906
     45          6           0        1.144474    2.677417    0.317513
     46          6           0        0.666311    2.686853   -1.048141
     47          6           0       -0.669078    3.018036   -1.292161
     48          6           0        1.344846    1.841806   -2.047407
     49          6           0        2.631587    1.430931   -1.788547
     50          6           0        3.071188    0.111390   -2.254041
     51          6           0        4.028361   -0.366330   -1.351247
     52          6           0        4.153265    0.566691   -0.268923
     53          6           0        4.048157   -0.154506    0.959965
     54          6           0        3.571910    0.510816    2.076663
     55          6           0        2.862390   -0.238623    3.064666
     56          6           0        1.954007    0.646141    3.735161
     57          6           0        1.874234    1.848028    2.946964
     58          6           0        2.843757    1.789459    1.911917
     59          6           0        2.503705    2.233694    0.587830
     60          6           0        3.266452    1.671044   -0.495739
 ---------------------------------------------------------------------
 Rotational constants (GHZ):           0.1022546           0.0759906           0.0722958
 Standard basis: 6-311G(d) (5D, 7F)
  1080 basis functions,  1920 primitive gaussians,  1140 cartesian basis functions
   180 alpha electrons      180 beta electrons
       nuclear repulsion energy      8330.3068129154 Hartrees.
 NAtoms=   60 NActive=   60 NUniq=   60 SFac= 1.00D+00 NAtFMM=   60 NAOKFM=T Big=T
 Integral buffers will be    131072 words long.
 Raffenetti 2 integral format.
 Two-electron integral symmetry is turned off.
 One-electron integrals computed using PRISM.
 NBasis=  1080 RedAO= T EigKep=  8.89D-05  NBF=  1080
 NBsUse=  1080 1.00D-06 EigRej= -1.00D+00 NBFU=  1080
 ExpMin= 1.46D-01 ExpMax= 4.56D+03 ExpMxC= 6.82D+02 IAcc=3 IRadAn=         5 AccDes= 0.00D+00
 Harris functional with IExCor=  402 and IRadAn=       5 diagonalized for initial guess.
 HarFok:  IExCor=  402 AccDes= 0.00D+00 IRadAn=         5 IDoV= 1 UseB2=F ITyADJ=14
 ICtDFT=  3500011 ScaDFX=  1.000000  1.000000  1.000000  1.000000
 FoFCou: FMM=F IPFlag=           0 FMFlag=      100000 FMFlg1=        2001
         NFxFlg=           0 DoJE=T BraDBF=F KetDBF=T FulRan=T
         wScrn=  0.000000 ICntrl=       500 IOpCl=  0 I1Cent=   200000004 NGrid=           0
         NMat0=    1 NMatS0=      1 NMatT0=    0 NMatD0=    1 NMtDS0=    0 NMtDT0=    0
 Symmetry not used in FoFCou.
 Requested convergence on RMS density matrix=1.00D-08 within 128 cycles.
 Requested convergence on MAX density matrix=1.00D-06.
 Requested convergence on             energy=1.00D-06.
 No special actions if energy rises.
 Integral accuracy reduced to 1.0D-05 until final iterations.
 EnCoef did     6 forward-backward iterations
 Initial convergence to 1.0D-05 achieved.  Increase integral accuracy.
 SCF Done:  E(RB3LYP) =  -2286.18986606     A.U. after   21 cycles
            NFock= 21  Conv=0.99D-08     -V/T= 2.0042

 **********************************************************************

            Population analysis using the SCF Density.

 **********************************************************************

 Alpha  occ. eigenvalues --  -10.24270 -10.24270 -10.24269 -10.24269 -10.24233
 Alpha  occ. eigenvalues --  -10.24232 -10.24231 -10.24230 -10.24024 -10.24023
 Alpha  occ. eigenvalues --  -10.23997 -10.23997 -10.23983 -10.23983 -10.23982
 Alpha  occ. eigenvalues --  -10.23981 -10.23962 -10.23962 -10.23931 -10.23931
 Alpha  occ. eigenvalues --  -10.23840 -10.23840 -10.23839 -10.23839 -10.23668
 Alpha  occ. eigenvalues --  -10.23667 -10.23667 -10.23666 -10.23544 -10.23543
 Alpha  occ. eigenvalues --  -10.23542 -10.23542 -10.23122 -10.23122 -10.23120
 Alpha  occ. eigenvalues --  -10.23120 -10.23033 -10.23032 -10.22977 -10.22976
 Alpha  occ. eigenvalues --  -10.22867 -10.22867 -10.22866 -10.22865 -10.22858
 Alpha  occ. eigenvalues --  -10.22858 -10.22855 -10.22855 -10.22555 -10.22555
 Alpha  occ. eigenvalues --  -10.22554 -10.22554 -10.22397 -10.22396 -10.22396
 Alpha  occ. eigenvalues --  -10.22395 -10.20779 -10.20779 -10.20779 -10.20778
 Alpha  occ. eigenvalues --   -0.99357  -0.98556  -0.97573  -0.97226  -0.93634
 Alpha  occ. eigenvalues --   -0.93080  -0.92954  -0.91391  -0.90602  -0.88616
 Alpha  occ. eigenvalues --   -0.88458  -0.88228  -0.87961  -0.86729  -0.84099
 Alpha  occ. eigenvalues --   -0.83578  -0.82410  -0.82147  -0.81907  -0.81753
 Alpha  occ. eigenvalues --   -0.80347  -0.79962  -0.78538  -0.76788  -0.75631
 Alpha  occ. eigenvalues --   -0.74326  -0.74317  -0.74308  -0.73724  -0.73362
 Alpha  occ. eigenvalues --   -0.71850  -0.69806  -0.69789  -0.69422  -0.66178
 Alpha  occ. eigenvalues --   -0.66053  -0.65815  -0.65774  -0.64800  -0.63953
 Alpha  occ. eigenvalues --   -0.63754  -0.61922  -0.61017  -0.60878  -0.59951
 Alpha  occ. eigenvalues --   -0.59889  -0.57844  -0.56957  -0.56274  -0.55823
 Alpha  occ. eigenvalues --   -0.55513  -0.55039  -0.54914  -0.53987  -0.52953
 Alpha  occ. eigenvalues --   -0.52148  -0.51691  -0.51006  -0.50668  -0.50553
 Alpha  occ. eigenvalues --   -0.50523  -0.49006  -0.48691  -0.48228  -0.48181
 Alpha  occ. eigenvalues --   -0.47932  -0.47829  -0.47388  -0.47198  -0.46572
 Alpha  occ. eigenvalues --   -0.46571  -0.46570  -0.45617  -0.45615  -0.45447
 Alpha  occ. eigenvalues --   -0.43862  -0.43667  -0.43600  -0.43023  -0.42812
 Alpha  occ. eigenvalues --   -0.42317  -0.42288  -0.42211  -0.41638  -0.41615
 Alpha  occ. eigenvalues --   -0.41109  -0.40527  -0.40207  -0.40135  -0.39400
 Alpha  occ. eigenvalues --   -0.39233  -0.38726  -0.38384  -0.38369  -0.37749
 Alpha  occ. eigenvalues --   -0.37632  -0.37399  -0.37209  -0.36633  -0.36531
 Alpha  occ. eigenvalues --   -0.36134  -0.35412  -0.34942  -0.34480  -0.32937
 Alpha  occ. eigenvalues --   -0.31975  -0.30658  -0.30569  -0.30144  -0.30038
 Alpha  occ. eigenvalues --   -0.29101  -0.27992  -0.26711  -0.25876  -0.24879
 Alpha  occ. eigenvalues --   -0.23705  -0.22802  -0.22648  -0.21794  -0.21152
 Alpha virt. eigenvalues --   -0.16981  -0.16835  -0.14259  -0.09619  -0.08940
 Alpha virt. eigenvalues --   -0.08520  -0.07368  -0.07155  -0.07149  -0.06870
 Alpha virt. eigenvalues --   -0.06785  -0.05263  -0.04757  -0.03956  -0.03499
 Alpha virt. eigenvalues --   -0.02982  -0.01658  -0.01325  -0.00223   0.00261
 Alpha virt. eigenvalues --    0.00481   0.01072   0.01780   0.02086   0.03281
 Alpha virt. eigenvalues --    0.04840   0.05890   0.06096   0.07161   0.07609
 Alpha virt. eigenvalues --    0.12477   0.12660   0.13354   0.13379   0.13554
 Alpha virt. eigenvalues --    0.14111   0.14475   0.15242   0.15396   0.15435
 Alpha virt. eigenvalues --    0.15955   0.16525   0.17103   0.17638   0.18552
 Alpha virt. eigenvalues --    0.18600   0.19353   0.20296   0.20548   0.21266
 Alpha virt. eigenvalues --    0.21733   0.21800   0.22185   0.22365   0.22781
 Alpha virt. eigenvalues --    0.23365   0.24441   0.24494   0.24902   0.25535
 Alpha virt. eigenvalues --    0.25941   0.26586   0.26622   0.26710   0.27234
 Alpha virt. eigenvalues --    0.27573   0.28415   0.28994   0.29114   0.29506
 Alpha virt. eigenvalues --    0.30548   0.31021   0.31304   0.31584   0.31715
 Alpha virt. eigenvalues --    0.32031   0.32340   0.32604   0.33128   0.33559
 Alpha virt. eigenvalues --    0.33619   0.34319   0.34494   0.34502   0.34659
 Alpha virt. eigenvalues --    0.34756   0.34781   0.34895   0.34937   0.35377
 Alpha virt. eigenvalues --    0.35670   0.35742   0.35946   0.36600   0.36985
 Alpha virt. eigenvalues --    0.37159   0.37231   0.37253   0.37389   0.37451
 Alpha virt. eigenvalues --    0.37475   0.37504   0.37703   0.37977   0.38148
 Alpha virt. eigenvalues --    0.38402   0.38830   0.38928   0.39007   0.39090
 Alpha virt. eigenvalues --    0.39696   0.40063   0.40440   0.41254   0.41375
 Alpha virt. eigenvalues --    0.41509   0.41519   0.41878   0.41968   0.42123
 Alpha virt. eigenvalues --    0.42173   0.42272   0.42620   0.42788   0.43188
 Alpha virt. eigenvalues --    0.43390   0.43581   0.43749   0.44071   0.44211
 Alpha virt. eigenvalues --    0.44637   0.44712   0.45186   0.45295   0.45495
 Alpha virt. eigenvalues --    0.45644   0.45772   0.45967   0.46116   0.46334
 Alpha virt. eigenvalues --    0.46525   0.46914   0.47151   0.47302   0.47313
 Alpha virt. eigenvalues --    0.47675   0.48046   0.48211   0.48655   0.48716
 Alpha virt. eigenvalues --    0.49073   0.49158   0.49264   0.49749   0.49916
 Alpha virt. eigenvalues --    0.50242   0.50702   0.50846   0.50855   0.50876
 Alpha virt. eigenvalues --    0.50978   0.51144   0.51155   0.51405   0.51508
 Alpha virt. eigenvalues --    0.51707   0.52104   0.52261   0.52516   0.52535
 Alpha virt. eigenvalues --    0.52808   0.52911   0.53101   0.53457   0.53466
 Alpha virt. eigenvalues --    0.53549   0.53995   0.54101   0.54138   0.54498
 Alpha virt. eigenvalues --    0.54887   0.55051   0.55168   0.55261   0.55352
 Alpha virt. eigenvalues --    0.55504   0.55601   0.55866   0.56250   0.56263
 Alpha virt. eigenvalues --    0.56587   0.57053   0.57090   0.57203   0.57360
 Alpha virt. eigenvalues --    0.57630   0.57637   0.58112   0.58198   0.58407
 Alpha virt. eigenvalues --    0.58708   0.58814   0.59357   0.59502   0.59797
 Alpha virt. eigenvalues --    0.60367   0.60875   0.61098   0.61412   0.61439
 Alpha virt. eigenvalues --    0.61978   0.62486   0.62528   0.62613   0.62990
 Alpha virt. eigenvalues --    0.63095   0.63335   0.63415   0.63882   0.64001
 Alpha virt. eigenvalues --    0.64172   0.64334   0.64670   0.65430   0.65771
 Alpha virt. eigenvalues --    0.66466   0.66572   0.67100   0.67207   0.67491
 Alpha virt. eigenvalues --    0.67700   0.67953   0.68032   0.68123   0.69183
 Alpha virt. eigenvalues --    0.69670   0.69726   0.69728   0.70808   0.70996
 Alpha virt. eigenvalues --    0.71893   0.71897   0.72220   0.72682   0.72822
 Alpha virt. eigenvalues --    0.73408   0.73571   0.74290   0.74350   0.74654
 Alpha virt. eigenvalues --    0.74770   0.75323   0.75418   0.76168   0.76195
 Alpha virt. eigenvalues --    0.76665   0.77197   0.78400   0.78729   0.78747
 Alpha virt. eigenvalues --    0.79059   0.79276   0.79367   0.79713   0.80023
 Alpha virt. eigenvalues --    0.80151   0.80827   0.81574   0.81927   0.81951
 Alpha virt. eigenvalues --    0.82257   0.82829   0.83390   0.84309   0.84352
 Alpha virt. eigenvalues --    0.84372   0.84602   0.84748   0.85328   0.86074
 Alpha virt. eigenvalues --    0.86420   0.86455   0.86646   0.87125   0.87728
 Alpha virt. eigenvalues --    0.88247   0.88758   0.89477   0.90388   0.90530
 Alpha virt. eigenvalues --    0.90546   0.91156   0.91817   0.93043   0.93120
 Alpha virt. eigenvalues --    0.93345   0.93473   0.93864   0.94043   0.94248
 Alpha virt. eigenvalues --    0.94616   0.95599   0.96116   0.96166   0.96193
 Alpha virt. eigenvalues --    0.96572   0.96921   0.97890   0.98004   0.98266
 Alpha virt. eigenvalues --    0.99279   0.99416   0.99731   1.00146   1.00754
 Alpha virt. eigenvalues --    1.02137   1.03829   1.03883   1.04307   1.04497
 Alpha virt. eigenvalues --    1.04905   1.05157   1.05572   1.06720   1.06744
 Alpha virt. eigenvalues --    1.07467   1.07597   1.07830   1.08281   1.09385
 Alpha virt. eigenvalues --    1.10476   1.10870   1.10902   1.12242   1.12245
 Alpha virt. eigenvalues --    1.12514   1.13582   1.13637   1.13885   1.14684
 Alpha virt. eigenvalues --    1.15218   1.15851   1.16449   1.16478   1.17073
 Alpha virt. eigenvalues --    1.18213   1.18419   1.18805   1.19907   1.20611
 Alpha virt. eigenvalues --    1.21675   1.22166   1.23216   1.23742   1.24245
 Alpha virt. eigenvalues --    1.24434   1.24972   1.25416   1.26240   1.26662
 Alpha virt. eigenvalues --    1.26706   1.27941   1.28196   1.28666   1.29483
 Alpha virt. eigenvalues --    1.30661   1.30946   1.31032   1.31453   1.31958
 Alpha virt. eigenvalues --    1.32687   1.33311   1.33429   1.33836   1.34141
 Alpha virt. eigenvalues --    1.34419   1.34928   1.35342   1.36101   1.36524
 Alpha virt. eigenvalues --    1.36877   1.37119   1.37390   1.37562   1.37737
 Alpha virt. eigenvalues --    1.38715   1.38837   1.39182   1.39300   1.39823
 Alpha virt. eigenvalues --    1.40000   1.40490   1.40738   1.41165   1.41219
 Alpha virt. eigenvalues --    1.42188   1.42224   1.42345   1.42424   1.43007
 Alpha virt. eigenvalues --    1.43010   1.43395   1.43669   1.44293   1.44848
 Alpha virt. eigenvalues --    1.45179   1.45645   1.45740   1.45941   1.46466
 Alpha virt. eigenvalues --    1.46560   1.47087   1.47333   1.47335   1.47734
 Alpha virt. eigenvalues --    1.47876   1.48047   1.48283   1.48631   1.48711
 Alpha virt. eigenvalues --    1.49223   1.49627   1.50269   1.50522   1.50713
 Alpha virt. eigenvalues --    1.51125   1.51139   1.51900   1.52419   1.52623
 Alpha virt. eigenvalues --    1.52634   1.52829   1.53124   1.53438   1.53939
 Alpha virt. eigenvalues --    1.53940   1.54606   1.54775   1.54860   1.55303
 Alpha virt. eigenvalues --    1.55683   1.56185   1.56605   1.56693   1.56706
 Alpha virt. eigenvalues --    1.58563   1.58701   1.58998   1.59834   1.59865
 Alpha virt. eigenvalues --    1.60099   1.60949   1.60967   1.61341   1.61670
 Alpha virt. eigenvalues --    1.62393   1.63102   1.63790   1.63999   1.64790
 Alpha virt. eigenvalues --    1.65007   1.65612   1.65756   1.66354   1.66640
 Alpha virt. eigenvalues --    1.66750   1.67076   1.67850   1.68057   1.68162
 Alpha virt. eigenvalues --    1.68235   1.68379   1.69398   1.69656   1.70496
 Alpha virt. eigenvalues --    1.70673   1.70720   1.70806   1.71245   1.71464
 Alpha virt. eigenvalues --    1.71762   1.72024   1.73550   1.74055   1.74196
 Alpha virt. eigenvalues --    1.74455   1.74614   1.74932   1.75267   1.75837
 Alpha virt. eigenvalues --    1.76234   1.76344   1.78537   1.79129   1.79976
 Alpha virt. eigenvalues --    1.80075   1.80226   1.80431   1.80687   1.80745
 Alpha virt. eigenvalues --    1.80985   1.81238   1.81540   1.82153   1.83300
 Alpha virt. eigenvalues --    1.84369   1.85597   1.86033   1.86481   1.87224
 Alpha virt. eigenvalues --    1.88092   1.89137   1.89382   1.91882   1.92202
 Alpha virt. eigenvalues --    1.92762   1.93573   1.94717   1.95187   1.95723
 Alpha virt. eigenvalues --    1.96376   1.96415   1.96880   1.97307   1.97719
 Alpha virt. eigenvalues --    1.98421   1.98604   1.98649   1.99957   2.00469
 Alpha virt. eigenvalues --    2.00630   2.00763   2.01363   2.01449   2.02336
 Alpha virt. eigenvalues --    2.03353   2.03674   2.03967   2.04093   2.04388
 Alpha virt. eigenvalues --    2.04898   2.05746   2.06741   2.06866   2.07411
 Alpha virt. eigenvalues --    2.07557   2.08914   2.09065   2.09235   2.09806
 Alpha virt. eigenvalues --    2.10373   2.11955   2.11996   2.12625   2.12909
 Alpha virt. eigenvalues --    2.13462   2.13842   2.14157   2.14283   2.14769
 Alpha virt. eigenvalues --    2.15645   2.16089   2.16161   2.16883   2.17163
 Alpha virt. eigenvalues --    2.17708   2.17958   2.18044   2.18784   2.19735
 Alpha virt. eigenvalues --    2.19820   2.20362   2.22071   2.22673   2.22678
 Alpha virt. eigenvalues --    2.22757   2.23100   2.23944   2.24147   2.24950
 Alpha virt. eigenvalues --    2.25130   2.25358   2.27071   2.27357   2.27361
 Alpha virt. eigenvalues --    2.27951   2.28760   2.29184   2.29647   2.30621
 Alpha virt. eigenvalues --    2.31191   2.31634   2.33478   2.33929   2.34294
 Alpha virt. eigenvalues --    2.34297   2.35588   2.35896   2.36240   2.38204
 Alpha virt. eigenvalues --    2.38404   2.38817   2.39059   2.39255   2.40715
 Alpha virt. eigenvalues --    2.41529   2.41876   2.41899   2.42492   2.43379
 Alpha virt. eigenvalues --    2.43806   2.44420   2.44438   2.44976   2.45132
 Alpha virt. eigenvalues --    2.45776   2.45955   2.46655   2.46905   2.47312
 Alpha virt. eigenvalues --    2.47365   2.47476   2.48161   2.48374   2.50020
 Alpha virt. eigenvalues --    2.50075   2.50141   2.50303   2.53396   2.53881
 Alpha virt. eigenvalues --    2.54567   2.57333   2.57381   2.58231   2.60180
 Alpha virt. eigenvalues --    2.60334   2.60848   2.61010   2.61568   2.62255
 Alpha virt. eigenvalues --    2.62419   2.63203   2.63373   2.63842   2.64912
 Alpha virt. eigenvalues --    2.64987   2.65157   2.65829   2.66312   2.67517
 Alpha virt. eigenvalues --    2.68368   2.68967   2.69539   2.71594   2.71685
 Alpha virt. eigenvalues --    2.72015   2.73158   2.74663   2.74754   2.74863
 Alpha virt. eigenvalues --    2.75293   2.76344   2.76670   2.77638   2.78789
 Alpha virt. eigenvalues --    2.79150   2.80299   2.80690   2.81282   2.81610
 Alpha virt. eigenvalues --    2.82490   2.82502   2.83014   2.84015   2.84021
 Alpha virt. eigenvalues --    2.85967   2.87733   2.88300   2.89408   2.89563
 Alpha virt. eigenvalues --    2.90492   2.90699   2.91047   2.93193   2.93793
 Alpha virt. eigenvalues --    2.94962   2.96101   2.96319   2.96410   2.96439
 Alpha virt. eigenvalues --    2.97414   2.97608   2.97649   2.98602   2.98995
 Alpha virt. eigenvalues --    2.99384   2.99638   3.00021   3.00283   3.01078
 Alpha virt. eigenvalues --    3.02108   3.02152   3.02530   3.03497   3.03524
 Alpha virt. eigenvalues --    3.03922   3.04844   3.05573   3.05669   3.05678
 Alpha virt. eigenvalues --    3.05988   3.06160   3.06564   3.07701   3.07750
 Alpha virt. eigenvalues --    3.08000   3.08360   3.09354   3.09650   3.10232
 Alpha virt. eigenvalues --    3.10349   3.11107   3.11316   3.11597   3.11852
 Alpha virt. eigenvalues --    3.13089   3.14823   3.14844   3.15712   3.16087
 Alpha virt. eigenvalues --    3.16102   3.16534   3.17065   3.17281   3.17683
 Alpha virt. eigenvalues --    3.17695   3.18674   3.19001   3.19722   3.19953
 Alpha virt. eigenvalues --    3.20347   3.20377   3.21265   3.21586   3.22544
 Alpha virt. eigenvalues --    3.23159   3.25346   3.25966   3.27357   3.28935
 Alpha virt. eigenvalues --    3.31372   3.32195   3.38529   3.39208   3.41266
 Alpha virt. eigenvalues --    3.42544   3.43687   3.47181   3.47944   3.48439
 Alpha virt. eigenvalues --    3.49274   3.50017   3.50420   3.51936   3.52502
 Alpha virt. eigenvalues --    3.52552   3.54752   3.54814   3.54937   3.56544
 Alpha virt. eigenvalues --    3.56815   3.57924   3.59764   3.60046   3.60916
 Alpha virt. eigenvalues --    3.61363   3.65813   3.66090   3.67889   3.69268
 Alpha virt. eigenvalues --    3.71392   3.74796   3.76453   3.77008   3.78001
 Alpha virt. eigenvalues --    3.78352   3.78545   3.78850   3.78876   3.82105
 Alpha virt. eigenvalues --    3.82324   3.82649   3.86087   3.86179   3.86234
 Alpha virt. eigenvalues --    3.86346   3.88230   3.89036   3.91088   3.93215
 Alpha virt. eigenvalues --    3.93716   3.93931   3.95180   3.96413   3.97884
 Alpha virt. eigenvalues --    3.99243   3.99795   4.03490   4.13174   4.16115
 Alpha virt. eigenvalues --    4.16745   4.20341   4.25874   4.30800   4.33440
 Alpha virt. eigenvalues --    4.34888   4.37091   4.38619   4.41432   4.48004
 Alpha virt. eigenvalues --    4.49823   4.51365   4.62447   4.63221   4.64900
 Alpha virt. eigenvalues --    4.68623   4.71482   4.75307   4.75848   4.80949
 Alpha virt. eigenvalues --    4.81459   4.84231   4.85430   4.85833   4.86501
 Alpha virt. eigenvalues --    4.88337   4.95720   4.96143   4.98882   4.99401
 Alpha virt. eigenvalues --   23.00335  23.22377  23.24382  23.24561  23.47320
 Alpha virt. eigenvalues --   23.49437  23.49657  23.54633  23.55890  23.66901
 Alpha virt. eigenvalues --   23.68921  23.70297  23.71794  23.72950  23.77427
 Alpha virt. eigenvalues --   23.77899  23.79991  23.81214  23.83060  23.83601
 Alpha virt. eigenvalues --   23.85845  23.86985  23.88162  23.88531  23.90540
 Alpha virt. eigenvalues --   23.92137  23.92152  23.92769  23.93188  23.94201
 Alpha virt. eigenvalues --   23.95137  23.95732  23.98262  23.98560  23.99287
 Alpha virt. eigenvalues --   23.99826  24.01292  24.01386  24.01807  24.02995
 Alpha virt. eigenvalues --   24.03076  24.03337  24.04256  24.04764  24.05946
 Alpha virt. eigenvalues --   24.06164  24.06209  24.06660  24.07635  24.08018
 Alpha virt. eigenvalues --   24.08285  24.08951  24.09952  24.09968  24.10110
 Alpha virt. eigenvalues --   24.10600  24.11266  24.13289  24.14676  24.15983
          Condensed to atoms (all electrons):
 Mulliken charges:
               1
     1  C   -0.009821
     2  C   -0.041461
     3  C   -0.001286
     4  C   -0.005214
     5  C    0.008631
     6  C   -0.003606
     7  C   -0.011551
     8  C    0.001832
     9  C    0.007423
    10  C    0.005764
    11  C    0.027614
    12  C    0.008625
    13  C   -0.005224
    14  C   -0.001272
    15  C    0.005776
    16  C    0.027593
    17  C    0.020920
    18  C   -0.004042
    19  C   -0.004102
    20  C    0.020957
    21  C    0.011219
    22  C   -0.006416
    23  C   -0.006430
    24  C    0.011189
    25  C    0.020957
    26  C   -0.004089
    27  C   -0.003594
    28  C   -0.009786
    29  C   -0.041528
    30  C    0.001900
    31  C    0.007347
    32  C   -0.006353
    33  C    0.011208
    34  C   -0.011677
    35  C   -0.003491
    36  C   -0.009949
    37  C    0.008681
    38  C    0.027615
    39  C    0.005658
    40  C    0.007485
    41  C    0.001900
    42  C   -0.011640
    43  C   -0.003582
    44  C   -0.004032
    45  C    0.020968
    46  C    0.011291
    47  C   -0.011602
    48  C   -0.006506
    49  C    0.007341
    50  C    0.002057
    51  C   -0.041468
    52  C   -0.001327
    53  C   -0.005154
    54  C   -0.005186
    55  C   -0.001292
    56  C   -0.041481
    57  C   -0.009792
    58  C    0.008613
    59  C    0.027595
    60  C    0.005793
 Sum of Mulliken charges =  -0.00000
 Mulliken charges with hydrogens summed into heavy atoms:
               1
     1  C   -0.009821
     2  C   -0.041461
     3  C   -0.001286
     4  C   -0.005214
     5  C    0.008631
     6  C   -0.003606
     7  C   -0.011551
     8  C    0.001832
     9  C    0.007423
    10  C    0.005764
    11  C    0.027614
    12  C    0.008625
    13  C   -0.005224
    14  C   -0.001272
    15  C    0.005776
    16  C    0.027593
    17  C    0.020920
    18  C   -0.004042
    19  C   -0.004102
    20  C    0.020957
    21  C    0.011219
    22  C   -0.006416
    23  C   -0.006430
    24  C    0.011189
    25  C    0.020957
    26  C   -0.004089
    27  C   -0.003594
    28  C   -0.009786
    29  C   -0.041528
    30  C    0.001900
    31  C    0.007347
    32  C   -0.006353
    33  C    0.011208
    34  C   -0.011677
    35  C   -0.003491
    36  C   -0.009949
    37  C    0.008681
    38  C    0.027615
    39  C    0.005658
    40  C    0.007485
    41  C    0.001900
    42  C   -0.011640
    43  C   -0.003582
    44  C   -0.004032
    45  C    0.020968
    46  C    0.011291
    47  C   -0.011602
    48  C   -0.006506
    49  C    0.007341
    50  C    0.002057
    51  C   -0.041468
    52  C   -0.001327
    53  C   -0.005154
    54  C   -0.005186
    55  C   -0.001292
    56  C   -0.041481
    57  C   -0.009792
    58  C    0.008613
    59  C    0.027595
    60  C    0.005793
 Electronic spatial extent (au):  <R**2>=          17343.0426
 Charge=             -0.0000 electrons
 Dipole moment (field-independent basis, Debye):
    X=              0.0008    Y=              0.0003    Z=              0.0003  Tot=              0.0009
 Quadrupole moment (field-independent basis, Debye-Ang):
   XX=           -337.6660   YY=           -338.0740   ZZ=           -336.3482
   XY=              0.5325   XZ=             -0.5392   YZ=             -1.3108
 Traceless Quadrupole moment (field-independent basis, Debye-Ang):
   XX=             -0.3033   YY=             -0.7113   ZZ=              1.0145
   XY=              0.5325   XZ=             -0.5392   YZ=             -1.3108
 Octapole moment (field-independent basis, Debye-Ang**2):
  XXX=             -4.3542  YYY=              1.3169  ZZZ=             -9.4105  XYY=              9.5199
  XXY=              3.8642  XXZ=              6.2587  XZZ=             -5.1464  YZZ=             -5.1696
  YYZ=              3.1583  XYZ=             -5.0829
 Hexadecapole moment (field-independent basis, Debye-Ang**3):
 XXXX=         -11874.4696 YYYY=          -7090.3661 ZZZZ=          -8287.7249 XXXY=           -175.3570
 XXXZ=           -843.0683 YYYX=           -187.9122 YYYZ=            142.2516 ZZZX=           -876.9305
 ZZZY=            112.8461 XXYY=          -3176.4936 XXZZ=          -3362.0034 YYZZ=          -2556.4920
 XXYZ=             41.8501 YYXZ=           -298.4699 ZZXY=            -55.0089
 N-N= 8.330306812915D+03 E-N=-2.195897366481D+04  KE= 2.276526246487D+03
 There are a total of     1350600 grid points.
 ElSum from          density=      360.0001531978
 ElSum from atomic densities=      360.0002192270
 Hirshfeld populations at iteration   1 (CA, CB, DipXYZ):
               1          2          3          4          5
     1  C    3.002970   3.002970  -0.006176  -0.055215  -0.039996
     2  C    3.018975   3.018975  -0.052353  -0.048808  -0.013927
     3  C    2.997474   2.997474  -0.078988   0.008559   0.005727
     4  C    3.001102   3.001102  -0.029577  -0.033415  -0.036377
     5  C    2.993573   2.993573  -0.027014   0.008668  -0.044168
     6  C    3.002115   3.002115   0.001736  -0.047617   0.004269
     7  C    3.005369   3.005369   0.001297  -0.040590  -0.015678
     8  C    2.997120   2.997120  -0.004471  -0.039245   0.083641
     9  C    2.997841   2.997841  -0.048698  -0.025818   0.009413
    10  C    2.993434   2.993434  -0.026775   0.012878   0.034741
    11  C    3.001829   3.001829  -0.007995   0.009263   0.012285
    12  C    2.993578   2.993578  -0.049143  -0.012225   0.013812
    13  C    3.001103   3.001103  -0.049042   0.029738   0.005023
    14  C    2.997480   2.997480  -0.052494  -0.014698  -0.058128
    15  C    2.993435   2.993435   0.005523  -0.013899  -0.043242
    16  C    3.001826   3.001826   0.003384  -0.009461  -0.014091
    17  C    2.997552   2.997552  -0.002139  -0.018134  -0.011020
    18  C    2.996109   2.996109   0.033452   0.001669  -0.026670
    19  C    2.996116   2.996116  -0.026430  -0.031249   0.012565
    20  C    2.997545   2.997545   0.010621  -0.017550  -0.005992
    21  C    2.998411   2.998411   0.023128  -0.000115   0.039009
    22  C    2.996163   2.996163  -0.055859  -0.030676  -0.015565
    23  C    2.996165   2.996165   0.044345   0.013172   0.046526
    24  C    2.998405   2.998405  -0.038703  -0.023520   0.002783
    25  C    2.997552   2.997552  -0.010608   0.017558   0.005964
    26  C    2.996102   2.996102   0.006011   0.000136   0.042365
    27  C    3.002115   3.002115   0.000368   0.047703  -0.003427
    28  C    3.002967   3.002967  -0.036365   0.053231   0.023056
    29  C    3.018978   3.018978  -0.051347   0.043984  -0.027404
    30  C    2.997118   2.997118   0.051052   0.041425  -0.065091
    31  C    2.997843   2.997843  -0.030815   0.022104  -0.041105
    32  C    2.996173   2.996173   0.065063  -0.008049  -0.002956
    33  C    2.998406   2.998406  -0.027984   0.020391  -0.029363
    34  C    3.005397   3.005397   0.016625  -0.034787  -0.020333
    35  C    3.002093   3.002093   0.015227  -0.024003  -0.038439
    36  C    3.002980   3.002980   0.033048  -0.058215  -0.014175
    37  C    2.993559   2.993559   0.029172  -0.018001   0.039667
    38  C    3.001830   3.001830   0.002891  -0.016991   0.001430
    39  C    2.993423   2.993423   0.007727  -0.041924   0.016607
    40  C    2.997842   2.997842   0.027192  -0.006853   0.048370
    41  C    2.997096   2.997096  -0.050382  -0.044152   0.063802
    42  C    3.005386   3.005386  -0.004738   0.035337   0.025012
    43  C    3.002102   3.002102  -0.017335   0.023893   0.037646
    44  C    2.996107   2.996107  -0.013002   0.029384  -0.028295
    45  C    2.997548   2.997548   0.002144   0.018155   0.011117
    46  C    2.998411   2.998411   0.043472   0.003220  -0.012485
    47  C    3.005370   3.005370  -0.013104   0.040019   0.010988
    48  C    2.996155   2.996155  -0.053551   0.025629  -0.028052
    49  C    2.997857   2.997857   0.052364   0.010587  -0.016726
    50  C    2.997085   2.997085   0.003809   0.041979  -0.082357
    51  C    3.018976   3.018976   0.068231  -0.018253  -0.018057
    52  C    2.997474   2.997474   0.067891   0.038192   0.016588
    53  C    3.001100   3.001100   0.045699  -0.034756   0.003856
    54  C    3.001095   3.001095   0.032866   0.038443   0.027446
    55  C    2.997482   2.997482   0.063542  -0.032058   0.035806
    56  C    3.018980   3.018980   0.035428   0.023098   0.059389
    57  C    3.002965   3.002965   0.009462   0.060228   0.031085
    58  C    2.993579   2.993579   0.046887   0.021581  -0.009343
    59  C    3.001821   3.001821   0.001693   0.017200   0.000365
    60  C    2.993418   2.993418   0.013577   0.042877  -0.008082
       Tot 180.000077 180.000077  -0.000164   0.000025  -0.000191

 Dip from Atomic Chgs              0.000836   0.000092   0.000480
         Total Dipole              0.000673   0.000118   0.000289

 Hirshfeld charges, spin densities, dipoles, and CM5 charges using IRadAn=      5:
              Q-H        S-H        Dx         Dy         Dz        Q-CM5   
     1  C   -0.005941   0.000000  -0.006176  -0.055215  -0.039996  -0.005941
     2  C   -0.037950   0.000000  -0.052353  -0.048808  -0.013927  -0.037950
     3  C    0.005051   0.000000  -0.078988   0.008559   0.005727   0.005051
     4  C   -0.002205   0.000000  -0.029577  -0.033415  -0.036377  -0.002205
     5  C    0.012855   0.000000  -0.027014   0.008668  -0.044168   0.012855
     6  C   -0.004230   0.000000   0.001736  -0.047617   0.004269  -0.004230
     7  C   -0.010738   0.000000   0.001297  -0.040590  -0.015678  -0.010738
     8  C    0.005760   0.000000  -0.004471  -0.039245   0.083641   0.005760
     9  C    0.004318   0.000000  -0.048698  -0.025818   0.009413   0.004318
    10  C    0.013132   0.000000  -0.026775   0.012878   0.034741   0.013132
    11  C   -0.003658   0.000000  -0.007995   0.009263   0.012285  -0.003658
    12  C    0.012844   0.000000  -0.049143  -0.012225   0.013812   0.012844
    13  C   -0.002205   0.000000  -0.049042   0.029738   0.005023  -0.002205
    14  C    0.005040   0.000000  -0.052494  -0.014698  -0.058128   0.005040
    15  C    0.013130   0.000000   0.005523  -0.013899  -0.043242   0.013130
    16  C   -0.003652   0.000000   0.003384  -0.009461  -0.014091  -0.003652
    17  C    0.004895   0.000000  -0.002139  -0.018134  -0.011020   0.004895
    18  C    0.007781   0.000000   0.033452   0.001669  -0.026670   0.007781
    19  C    0.007768   0.000000  -0.026430  -0.031249   0.012565   0.007768
    20  C    0.004910   0.000000   0.010621  -0.017550  -0.005992   0.004910
    21  C    0.003177   0.000000   0.023128  -0.000115   0.039009   0.003177
    22  C    0.007674   0.000000  -0.055859  -0.030676  -0.015565   0.007674
    23  C    0.007670   0.000000   0.044345   0.013172   0.046526   0.007670
    24  C    0.003190   0.000000  -0.038703  -0.023520   0.002783   0.003190
    25  C    0.004895   0.000000  -0.010608   0.017558   0.005964   0.004895
    26  C    0.007797   0.000000   0.006011   0.000136   0.042365   0.007797
    27  C   -0.004231   0.000000   0.000368   0.047703  -0.003427  -0.004231
    28  C   -0.005933   0.000000  -0.036365   0.053231   0.023056  -0.005933
    29  C   -0.037957   0.000000  -0.051347   0.043984  -0.027404  -0.037957
    30  C    0.005763   0.000000   0.051052   0.041425  -0.065091   0.005763
    31  C    0.004314   0.000000  -0.030815   0.022104  -0.041105   0.004314
    32  C    0.007655   0.000000   0.065063  -0.008049  -0.002956   0.007655
    33  C    0.003188   0.000000  -0.027984   0.020391  -0.029363   0.003188
    34  C   -0.010793   0.000000   0.016625  -0.034787  -0.020333  -0.010793
    35  C   -0.004186   0.000000   0.015227  -0.024003  -0.038439  -0.004186
    36  C   -0.005960   0.000000   0.033048  -0.058215  -0.014175  -0.005960
    37  C    0.012882   0.000000   0.029172  -0.018001   0.039667   0.012882
    38  C   -0.003660   0.000000   0.002891  -0.016991   0.001430  -0.003660
    39  C    0.013153   0.000000   0.007727  -0.041924   0.016607   0.013153
    40  C    0.004317   0.000000   0.027192  -0.006853   0.048370   0.004317
    41  C    0.005808   0.000000  -0.050382  -0.044152   0.063802   0.005808
    42  C   -0.010772   0.000000  -0.004738   0.035337   0.025012  -0.010772
    43  C   -0.004204   0.000000  -0.017335   0.023893   0.037646  -0.004204
    44  C    0.007787   0.000000  -0.013002   0.029384  -0.028295   0.007787
    45  C    0.004903   0.000000   0.002144   0.018155   0.011117   0.004903
    46  C    0.003177   0.000000   0.043472   0.003220  -0.012485   0.003177
    47  C   -0.010740   0.000000  -0.013104   0.040019   0.010988  -0.010740
    48  C    0.007689   0.000000  -0.053551   0.025629  -0.028052   0.007689
    49  C    0.004286   0.000000   0.052364   0.010587  -0.016726   0.004286
    50  C    0.005830   0.000000   0.003809   0.041979  -0.082357   0.005830
    51  C   -0.037952   0.000000   0.068231  -0.018253  -0.018057  -0.037952
    52  C    0.005052   0.000000   0.067891   0.038192   0.016588   0.005052
    53  C   -0.002200   0.000000   0.045699  -0.034756   0.003856  -0.002200
    54  C   -0.002189   0.000000   0.032866   0.038443   0.027446  -0.002189
    55  C    0.005037   0.000000   0.063542  -0.032058   0.035806   0.005037
    56  C   -0.037959   0.000000   0.035428   0.023098   0.059389  -0.037959
    57  C   -0.005930   0.000000   0.009462   0.060228   0.031085  -0.005930
    58  C    0.012841   0.000000   0.046887   0.021581  -0.009343   0.012841
    59  C   -0.003643   0.000000   0.001693   0.017200   0.000365  -0.003643
    60  C    0.013165   0.000000   0.013577   0.042877  -0.008082   0.013165
       Tot  -0.000153   0.000000  -0.000164   0.000025  -0.000191  -0.000153
 Hirshfeld charges with hydrogens summed into heavy atoms:
              Q-H       Q-CM5   
     1  C   -0.005941  -0.005941
     2  C   -0.037950  -0.037950
     3  C    0.005051   0.005051
     4  C   -0.002205  -0.002205
     5  C    0.012855   0.012855
     6  C   -0.004230  -0.004230
     7  C   -0.010738  -0.010738
     8  C    0.005760   0.005760
     9  C    0.004318   0.004318
    10  C    0.013132   0.013132
    11  C   -0.003658  -0.003658
    12  C    0.012844   0.012844
    13  C   -0.002205  -0.002205
    14  C    0.005040   0.005040
    15  C    0.013130   0.013130
    16  C   -0.003652  -0.003652
    17  C    0.004895   0.004895
    18  C    0.007781   0.007781
    19  C    0.007768   0.007768
    20  C    0.004910   0.004910
    21  C    0.003177   0.003177
    22  C    0.007674   0.007674
    23  C    0.007670   0.007670
    24  C    0.003190   0.003190
    25  C    0.004895   0.004895
    26  C    0.007797   0.007797
    27  C   -0.004231  -0.004231
    28  C   -0.005933  -0.005933
    29  C   -0.037957  -0.037957
    30  C    0.005763   0.005763
    31  C    0.004314   0.004314
    32  C    0.007655   0.007655
    33  C    0.003188   0.003188
    34  C   -0.010793  -0.010793
    35  C   -0.004186  -0.004186
    36  C   -0.005960  -0.005960
    37  C    0.012882   0.012882
    38  C   -0.003660  -0.003660
    39  C    0.013153   0.013153
    40  C    0.004317   0.004317
    41  C    0.005808   0.005808
    42  C   -0.010772  -0.010772
    43  C   -0.004204  -0.004204
    44  C    0.007787   0.007787
    45  C    0.004903   0.004903
    46  C    0.003177   0.003177
    47  C   -0.010740  -0.010740
    48  C    0.007689   0.007689
    49  C    0.004286   0.004286
    50  C    0.005830   0.005830
    51  C   -0.037952  -0.037952
    52  C    0.005052   0.005052
    53  C   -0.002200  -0.002200
    54  C   -0.002189  -0.002189
    55  C    0.005037   0.005037
    56  C   -0.037959  -0.037959
    57  C   -0.005930  -0.005930
    58  C    0.012841   0.012841
    59  C   -0.003643  -0.003643
    60  C    0.013165   0.013165
 
 EQQ=  0.00000000000     EQD=  0.00000000000     EDD= 0.653013341668E-02
 EQQ+QD+DD= 0.653013341668E-02
 
 1\1\GINC-CU16\SP\RB3LYP\6-311G(d)\C60\WANG\06-Jun-2025\0\\# B3LYP/6-31
 1G* Pop=Hirshfeld NOSYMM\\From ../B3LYP_opt/C60_1083.out\\0,1\C,0,-2.4
 88936,-2.782358,-1.295245\C,0,-3.302566,-2.696078,-0.110799\C,0,-3.951
 654,-1.417176,-0.137115\C,0,-3.806261,-0.866697,-1.447562\C,0,-2.76313
 1,-1.666727,-2.128907\C,0,-1.143799,-3.060444,-0.896566\C,0,-1.127531,
 -3.102058,0.576229\C,0,-2.446372,-2.747769,0.995472\C,0,-2.6142,-1.503
 599,1.753644\C,0,-3.510072,-0.642794,0.986569\C,0,-3.212881,0.758189,0
 .840449\C,0,-3.592551,1.36951,-0.403922\C,0,-3.81419,0.510388,-1.58934
 5\C,0,-3.063942,1.089174,-2.658767\C,0,-1.911079,0.389335,-3.146961\C,
 0,-1.683706,-0.987122,-2.79162\C,0,-0.316524,-1.41866,-2.542624\C,0,-0
 .056363,-2.457181,-1.539381\C,0,1.229785,-2.493794,-0.824124\C,0,1.260
 721,-2.564996,0.64105\C,0,-0.021627,-2.656693,1.305082\C,0,-0.285373,-
 1.792093,2.469576\C,0,-1.54612,-0.992104,2.453015\C,0,-1.415163,0.4725
 66,2.556566\C,0,-2.088671,1.306251,1.584335\C,0,-1.295471,2.39376,1.00
 0697\C,0,-1.688545,2.927918,-0.232089\C,0,-2.911814,2.529722,-0.857046
 \C,0,-2.679764,2.416355,-2.273228\C,0,-1.305754,2.572278,-2.490681\C,0
 ,-0.806335,1.343641,-3.116772\C,0,0.486844,0.942593,-2.875235\C,0,0.77
 0463,-0.502702,-2.813327\C,0,2.072473,-0.884767,-2.479652\C,0,2.331389
 ,-1.95058,-1.495683\C,0,3.526553,-1.595574,-0.794885\C,0,3.511771,-1.4
 92204,0.620712\C,0,2.392888,-2.004811,1.363431\C,0,2.154862,-1.417603,
 2.656179\C,0,0.789174,-1.270829,3.151579\C,0,0.680986,0.064098,3.74936
 6\C,0,-0.275917,0.968776,3.195715\C,0,0.500812,2.083113,2.624493\C,0,0
 .122025,2.556899,1.362906\C,0,1.144474,2.677417,0.317513\C,0,0.666311,
 2.686853,-1.048141\C,0,-0.669078,3.018036,-1.292161\C,0,1.344846,1.841
 806,-2.047407\C,0,2.631587,1.430931,-1.788547\C,0,3.071188,0.11139,-2.
 254041\C,0,4.028361,-0.36633,-1.351247\C,0,4.153265,0.566691,-0.268923
 \C,0,4.048157,-0.154506,0.959965\C,0,3.57191,0.510816,2.076663\C,0,2.8
 6239,-0.238623,3.064666\C,0,1.954007,0.646141,3.735161\C,0,1.874234,1.
 848028,2.946964\C,0,2.843757,1.789459,1.911917\C,0,2.503705,2.233694,0
 .58783\C,0,3.266452,1.671044,-0.495739\\Version=ES64L-G16RevB.01\HF=-2
 286.1898661\RMSD=9.899e-09\Dipole=0.0003031,0.0001186,0.0001068\Quadru
 pole=-0.2254688,-0.5288009,0.7542697,0.395935,-0.4009158,-0.9745707\PG
 =C01 [X(C60)]\\@


 LENDING MONEY TO FRIENDS CAUSES THEM TO LOSE THEIR MEMORIES.

    --  PETER'S THEORY OF RECIPROCAL INHIBITION OF FISCAL RECALL
 Job cpu time:       0 days  2 hours 19 minutes 21.1 seconds.
 Elapsed time:       0 days  0 hours  7 minutes 47.3 seconds.
 File lengths (MBytes):  RWF=    631 Int=      0 D2E=      0 Chk=     68 Scr=      1
 Normal termination of Gaussian 16 at Fri Jun  6 04:30:11 2025.
