 Entering Gaussian System, Link 0=g16
 Initial command:
 /opt/software/g16/l1.exe "/tmp/C60_1812_sgp-21435.tmp/Gau-32054.inp" -scrdir="/tmp/C60_1812_sgp-21435.tmp/"
 Entering Link 1 = /opt/software/g16/l1.exe PID=     32055.
  
 Copyright (c) 1988-2017, Gaussian, Inc.  All Rights Reserved.
  
 This is part of the Gaussian(R) 16 program.  It is based on
 the Gaussian(R) 09 system (copyright 2009, Gaussian, Inc.),
 the Gaussian(R) 03 system (copyright 2003, Gaussian, Inc.),
 the Gaussian(R) 98 system (copyright 1998, Gaussian, Inc.),
 the Gaussian(R) 94 system (copyright 1995, Gaussian, Inc.),
 the Gaussian 92(TM) system (copyright 1992, Gaussian, Inc.),
 the Gaussian 90(TM) system (copyright 1990, Gaussian, Inc.),
 the Gaussian 88(TM) system (copyright 1988, Gaussian, Inc.),
 the Gaussian 86(TM) system (copyright 1986, Carnegie Mellon
 University), and the Gaussian 82(TM) system (copyright 1983,
 Carnegie Mellon University). Gaussian is a federally registered
 trademark of Gaussian, Inc.
  
 This software contains proprietary and confidential information,
 including trade secrets, belonging to Gaussian, Inc.
  
 This software is provided under written license and may be
 used, copied, transmitted, or stored only in accord with that
 written license.
  
 The following legend is applicable only to US Government
 contracts under FAR:
  
                    RESTRICTED RIGHTS LEGEND
  
 Use, reproduction and disclosure by the US Government is
 subject to restrictions as set forth in subparagraphs (a)
 and (c) of the Commercial Computer Software - Restricted
 Rights clause in FAR 52.227-19.
  
 Gaussian, Inc.
 340 Quinnipiac St., Bldg. 40, Wallingford CT 06492
  
  
 ---------------------------------------------------------------
 Warning -- This program may not be used in any manner that
 competes with the business of Gaussian, Inc. or will provide
 assistance to any competitor of Gaussian, Inc.  The licensee
 of this program is prohibited from giving any competitor of
 Gaussian, Inc. access to this program.  By using this program,
 the user acknowledges that Gaussian, Inc. is engaged in the
 business of creating and licensing software in the field of
 computational chemistry and represents and warrants to the
 licensee that it is not a competitor of Gaussian, Inc. and that
 it will not use this program in any manner prohibited above.
 ---------------------------------------------------------------
  

 Cite this work as:
 Gaussian 16, Revision B.01,
 M. J. Frisch, G. W. Trucks, H. B. Schlegel, G. E. Scuseria, 
 M. A. Robb, J. R. Cheeseman, G. Scalmani, V. Barone, 
 G. A. Petersson, H. Nakatsuji, X. Li, M. Caricato, A. V. Marenich, 
 J. Bloino, B. G. Janesko, R. Gomperts, B. Mennucci, H. P. Hratchian, 
 J. V. Ortiz, A. F. Izmaylov, J. L. Sonnenberg, D. Williams-Young, 
 F. Ding, F. Lipparini, F. Egidi, J. Goings, B. Peng, A. Petrone, 
 T. Henderson, D. Ranasinghe, V. G. Zakrzewski, J. Gao, N. Rega, 
 G. Zheng, W. Liang, M. Hada, M. Ehara, K. Toyota, R. Fukuda, 
 J. Hasegawa, M. Ishida, T. Nakajima, Y. Honda, O. Kitao, H. Nakai, 
 T. Vreven, K. Throssell, J. A. Montgomery, Jr., J. E. Peralta, 
 F. Ogliaro, M. J. Bearpark, J. J. Heyd, E. N. Brothers, K. N. Kudin, 
 V. N. Staroverov, T. A. Keith, R. Kobayashi, J. Normand, 
 K. Raghavachari, A. P. Rendell, J. C. Burant, S. S. Iyengar, 
 J. Tomasi, M. Cossi, J. M. Millam, M. Klene, C. Adamo, R. Cammi, 
 J. W. Ochterski, R. L. Martin, K. Morokuma, O. Farkas, 
 J. B. Foresman, and D. J. Fox, Gaussian, Inc., Wallingford CT, 2016.
 
 ******************************************
 Gaussian 16:  ES64L-G16RevB.01 20-Dec-2017
                 6-Jun-2025 
 ******************************************
 %nproc=18
 Will use up to   18 processors via shared memory.
 ------------------------------------
 # B3LYP/6-311G* Pop=Hirshfeld NOSYMM
 ------------------------------------
 1/38=1,172=1/1;
 2/12=2,15=1,17=6,18=5,40=1/2;
 3/5=4,6=6,7=1,11=2,25=1,30=1,74=-5/1,2,3;
 4//1;
 5/5=2,38=5/2;
 6/7=2,8=2,9=2,10=2,28=1,79=1/1;
 99/5=1,9=1/99;
 ------------------------------
 From ../B3LYP_opt/C60_1812.out
 ------------------------------
 Symbolic Z-matrix:
 Charge =  0 Multiplicity = 1
 6                     0.72668  -1.0002    3.32731 
 6                     1.17585   0.38207   3.32739 
 6                     1.42434  -1.96047   2.5939 
 6                     2.30476   0.74883   2.59397 
 6                     2.30475   1.98518   1.82984 
 6                     0.        1.23638   3.3274 
 6                     0.        2.42321   2.59386 
 6                     1.17587   2.80524   1.82977 
 6                    -0.69767  -2.9609    1.82993 
 6                    -1.42434  -1.96047   2.5939 
 6                     0.69767  -2.9609    1.82993 
 6                    -0.72668  -1.0002    3.32731 
 6                    -1.17585   0.38207   3.32739 
 6                    -2.6003   -1.57845   1.82988 
 6                    -3.0315   -0.25145   1.82988 
 6                    -2.30476   0.74883   2.59397 
 6                     0.7267   -3.42335  -0.59341 
 6                    -0.7267   -3.42335  -0.59341 
 6                     1.42432  -3.19676   0.59348 
 6                    -1.42432  -3.19676   0.59348 
 6                    -2.60015  -2.34242   0.59345 
 6                    -1.17587  -2.80524  -1.82977 
 6                    -2.30475  -1.98518  -1.82984 
 6                    -3.0314   -1.74902  -0.59344 
 6                     3.0314   -1.74902  -0.59344 
 6                     2.30475  -1.98518  -1.82984 
 6                     2.60015  -2.34242   0.59345 
 6                     1.17587  -2.80524  -1.82977 
 6                     0.       -2.42321  -2.59386 
 6                     2.30476  -0.74883  -2.59397 
 6                     1.17585  -0.38207  -3.32739 
 6                     0.       -1.23638  -3.3274 
 6                     3.0315   -0.25145   1.82988 
 6                     3.48063   0.36676   0.59349 
 6                     2.6003   -1.57845   1.82988 
 6                     3.48063  -0.36676  -0.59349 
 6                     3.0315    0.25145  -1.82988 
 6                     3.0314    1.74902   0.59344 
 6                     2.60015   2.34242  -0.59345 
 6                     2.6003    1.57845  -1.82988 
 6                    -0.72668   1.0002   -3.32731 
 6                     0.72668   1.0002   -3.32731 
 6                     1.42434   1.96047  -2.5939 
 6                    -1.42434   1.96047  -2.5939 
 6                    -3.0315    0.25145  -1.82988 
 6                    -2.30476  -0.74883  -2.59397 
 6                    -1.17585  -0.38207  -3.32739 
 6                    -2.6003    1.57845  -1.82988 
 6                    -3.0314    1.74902   0.59344 
 6                    -3.48063   0.36676   0.59349 
 6                    -3.48063  -0.36676  -0.59349 
 6                    -2.60015   2.34242  -0.59345 
 6                    -0.7267    3.42335   0.59341 
 6                    -1.17587   2.80524   1.82977 
 6                    -2.30475   1.98518   1.82984 
 6                    -1.42432   3.19676  -0.59348 
 6                     0.69767   2.9609   -1.82993 
 6                     1.42432   3.19676  -0.59348 
 6                     0.7267    3.42335   0.59341 
 6                    -0.69767   2.9609   -1.82993 
 
 Symmetry turned off by external request.
 Stoichiometry    C60
 Framework group  CI[X(C60)]
 Deg. of freedom    87
 Full point group                 CI      NOp   2
                          Input orientation:                          
 ---------------------------------------------------------------------
 Center     Atomic      Atomic             Coordinates (Angstroms)
 Number     Number       Type             X           Y           Z
 ---------------------------------------------------------------------
      1          6           0        0.726682   -1.000201    3.327306
      2          6           0        1.175847    0.382065    3.327388
      3          6           0        1.424340   -1.960465    2.593896
      4          6           0        2.304758    0.748829    2.593967
      5          6           0        2.304751    1.985181    1.829844
      6          6           0        0.000000    1.236379    3.327397
      7          6           0        0.000000    2.423208    2.593861
      8          6           0        1.175873    2.805238    1.829770
      9          6           0       -0.697674   -2.960903    1.829932
     10          6           0       -1.424340   -1.960465    2.593896
     11          6           0        0.697674   -2.960903    1.829932
     12          6           0       -0.726682   -1.000201    3.327306
     13          6           0       -1.175847    0.382065    3.327388
     14          6           0       -2.600298   -1.578454    1.829882
     15          6           0       -3.031497   -0.251454    1.829882
     16          6           0       -2.304758    0.748829    2.593967
     17          6           0        0.726699   -3.423354   -0.593413
     18          6           0       -0.726699   -3.423354   -0.593413
     19          6           0        1.424323   -3.196757    0.593475
     20          6           0       -1.424323   -3.196757    0.593475
     21          6           0       -2.600149   -2.342416    0.593450
     22          6           0       -1.175873   -2.805238   -1.829770
     23          6           0       -2.304751   -1.985181   -1.829844
     24          6           0       -3.031397   -1.749021   -0.593443
     25          6           0        3.031397   -1.749021   -0.593443
     26          6           0        2.304751   -1.985181   -1.829844
     27          6           0        2.600149   -2.342416    0.593450
     28          6           0        1.175873   -2.805238   -1.829770
     29          6           0        0.000000   -2.423208   -2.593861
     30          6           0        2.304758   -0.748829   -2.593967
     31          6           0        1.175847   -0.382065   -3.327388
     32          6           0        0.000000   -1.236379   -3.327397
     33          6           0        3.031497   -0.251454    1.829882
     34          6           0        3.480634    0.366757    0.593485
     35          6           0        2.600298   -1.578454    1.829883
     36          6           0        3.480634   -0.366757   -0.593485
     37          6           0        3.031496    0.251454   -1.829882
     38          6           0        3.031397    1.749021    0.593443
     39          6           0        2.600149    2.342416   -0.593450
     40          6           0        2.600298    1.578454   -1.829882
     41          6           0       -0.726682    1.000201   -3.327306
     42          6           0        0.726682    1.000201   -3.327306
     43          6           0        1.424340    1.960465   -2.593896
     44          6           0       -1.424340    1.960465   -2.593896
     45          6           0       -3.031496    0.251454   -1.829882
     46          6           0       -2.304758   -0.748829   -2.593967
     47          6           0       -1.175847   -0.382065   -3.327388
     48          6           0       -2.600298    1.578454   -1.829882
     49          6           0       -3.031397    1.749021    0.593443
     50          6           0       -3.480634    0.366757    0.593485
     51          6           0       -3.480634   -0.366757   -0.593485
     52          6           0       -2.600149    2.342416   -0.593450
     53          6           0       -0.726699    3.423354    0.593413
     54          6           0       -1.175873    2.805238    1.829770
     55          6           0       -2.304751    1.985181    1.829844
     56          6           0       -1.424323    3.196757   -0.593475
     57          6           0        0.697674    2.960903   -1.829932
     58          6           0        1.424323    3.196757   -0.593475
     59          6           0        0.726699    3.423354    0.593413
     60          6           0       -0.697674    2.960903   -1.829932
 ---------------------------------------------------------------------
 Rotational constants (GHZ):           0.0835586           0.0835569           0.0835552
 Standard basis: 6-311G(d) (5D, 7F)
  1080 basis functions,  1920 primitive gaussians,  1140 cartesian basis functions
   180 alpha electrons      180 beta electrons
       nuclear repulsion energy      8327.2781704202 Hartrees.
 NAtoms=   60 NActive=   60 NUniq=   60 SFac= 1.00D+00 NAtFMM=   60 NAOKFM=T Big=T
 Integral buffers will be    131072 words long.
 Raffenetti 2 integral format.
 Two-electron integral symmetry is turned off.
 One-electron integrals computed using PRISM.
 NBasis=  1080 RedAO= T EigKep=  9.22D-05  NBF=  1080
 NBsUse=  1080 1.00D-06 EigRej= -1.00D+00 NBFU=  1080
 ExpMin= 1.46D-01 ExpMax= 4.56D+03 ExpMxC= 6.82D+02 IAcc=3 IRadAn=         5 AccDes= 0.00D+00
 Harris functional with IExCor=  402 and IRadAn=       5 diagonalized for initial guess.
 HarFok:  IExCor=  402 AccDes= 0.00D+00 IRadAn=         5 IDoV= 1 UseB2=F ITyADJ=14
 ICtDFT=  3500011 ScaDFX=  1.000000  1.000000  1.000000  1.000000
 FoFCou: FMM=F IPFlag=           0 FMFlag=      100000 FMFlg1=        2001
         NFxFlg=           0 DoJE=T BraDBF=F KetDBF=T FulRan=T
         wScrn=  0.000000 ICntrl=       500 IOpCl=  0 I1Cent=   200000004 NGrid=           0
         NMat0=    1 NMatS0=      1 NMatT0=    0 NMatD0=    1 NMtDS0=    0 NMtDT0=    0
 Symmetry not used in FoFCou.
 Requested convergence on RMS density matrix=1.00D-08 within 128 cycles.
 Requested convergence on MAX density matrix=1.00D-06.
 Requested convergence on             energy=1.00D-06.
 No special actions if energy rises.
 Integral accuracy reduced to 1.0D-05 until final iterations.
 Rare condition: small coef for last iteration:  0.000D+00
 Rare condition: small coef for last iteration:  0.000D+00
 Initial convergence to 1.0D-05 achieved.  Increase integral accuracy.
 SCF Done:  E(RB3LYP) =  -2286.59029819     A.U. after   14 cycles
            NFock= 14  Conv=0.51D-08     -V/T= 2.0043

 **********************************************************************

            Population analysis using the SCF Density.

 **********************************************************************

 Alpha  occ. eigenvalues --  -10.22841 -10.22839 -10.22839 -10.22838 -10.22833
 Alpha  occ. eigenvalues --  -10.22832 -10.22832 -10.22832 -10.22831 -10.22823
 Alpha  occ. eigenvalues --  -10.22823 -10.22823 -10.22822 -10.22822 -10.22822
 Alpha  occ. eigenvalues --  -10.22821 -10.22814 -10.22813 -10.22813 -10.22813
 Alpha  occ. eigenvalues --  -10.22811 -10.22811 -10.22810 -10.22810 -10.22810
 Alpha  occ. eigenvalues --  -10.22806 -10.22806 -10.22806 -10.22806 -10.22806
 Alpha  occ. eigenvalues --  -10.22777 -10.22777 -10.22776 -10.22773 -10.22773
 Alpha  occ. eigenvalues --  -10.22773 -10.22762 -10.22761 -10.22761 -10.22761
 Alpha  occ. eigenvalues --  -10.22761 -10.22758 -10.22758 -10.22758 -10.22754
 Alpha  occ. eigenvalues --  -10.22754 -10.22754 -10.22753 -10.22753 -10.22744
 Alpha  occ. eigenvalues --  -10.22744 -10.22744 -10.22744 -10.22732 -10.22732
 Alpha  occ. eigenvalues --  -10.22731 -10.22731 -10.22731 -10.22731 -10.22731
 Alpha  occ. eigenvalues --   -0.98348  -0.96375  -0.96374  -0.96374  -0.92589
 Alpha  occ. eigenvalues --   -0.92589  -0.92588  -0.92588  -0.92588  -0.88592
 Alpha  occ. eigenvalues --   -0.88592  -0.88592  -0.85437  -0.85436  -0.85436
 Alpha  occ. eigenvalues --   -0.85436  -0.80376  -0.80376  -0.80375  -0.80375
 Alpha  occ. eigenvalues --   -0.80375  -0.78701  -0.78701  -0.78701  -0.78700
 Alpha  occ. eigenvalues --   -0.73052  -0.73052  -0.73052  -0.73052  -0.73051
 Alpha  occ. eigenvalues --   -0.71692  -0.71692  -0.71692  -0.67472  -0.67472
 Alpha  occ. eigenvalues --   -0.67472  -0.63799  -0.63799  -0.63799  -0.63798
 Alpha  occ. eigenvalues --   -0.63798  -0.63394  -0.63393  -0.63393  -0.61066
 Alpha  occ. eigenvalues --   -0.56816  -0.56816  -0.56816  -0.56815  -0.54401
 Alpha  occ. eigenvalues --   -0.54399  -0.54399  -0.54399  -0.54398  -0.52873
 Alpha  occ. eigenvalues --   -0.52873  -0.52872  -0.50362  -0.50362  -0.50362
 Alpha  occ. eigenvalues --   -0.49457  -0.47785  -0.47785  -0.47784  -0.47784
 Alpha  occ. eigenvalues --   -0.47107  -0.47107  -0.47106  -0.45910  -0.45910
 Alpha  occ. eigenvalues --   -0.45909  -0.45909  -0.45909  -0.44587  -0.44587
 Alpha  occ. eigenvalues --   -0.44586  -0.44586  -0.43398  -0.43398  -0.43397
 Alpha  occ. eigenvalues --   -0.42645  -0.42645  -0.42645  -0.42645  -0.42645
 Alpha  occ. eigenvalues --   -0.41585  -0.41585  -0.41585  -0.41584  -0.37418
 Alpha  occ. eigenvalues --   -0.37418  -0.37418  -0.37418  -0.37417  -0.37210
 Alpha  occ. eigenvalues --   -0.37210  -0.37210  -0.36284  -0.36283  -0.36283
 Alpha  occ. eigenvalues --   -0.36283  -0.36283  -0.35287  -0.35286  -0.35286
 Alpha  occ. eigenvalues --   -0.35285  -0.28551  -0.28549  -0.28549  -0.28549
 Alpha  occ. eigenvalues --   -0.28548  -0.28427  -0.28427  -0.28426  -0.28426
 Alpha  occ. eigenvalues --   -0.23527  -0.23527  -0.23527  -0.23527  -0.23526
 Alpha virt. eigenvalues --   -0.13511  -0.13510  -0.13508  -0.09079  -0.09077
 Alpha virt. eigenvalues --   -0.09076  -0.05325  -0.05324  -0.05324  -0.04774
 Alpha virt. eigenvalues --   -0.04773  -0.04773  -0.04773  -0.04773   0.01361
 Alpha virt. eigenvalues --    0.01363   0.01364   0.01365   0.01366   0.03221
 Alpha virt. eigenvalues --    0.03223   0.03226   0.03226   0.05969   0.05970
 Alpha virt. eigenvalues --    0.05971   0.05971   0.07981   0.07982   0.07982
 Alpha virt. eigenvalues --    0.11490   0.11491   0.11492   0.13950   0.13951
 Alpha virt. eigenvalues --    0.13952   0.13952   0.13953   0.17103   0.17103
 Alpha virt. eigenvalues --    0.17104   0.17151   0.17151   0.17153   0.17766
 Alpha virt. eigenvalues --    0.17767   0.17768   0.17769   0.21694   0.21695
 Alpha virt. eigenvalues --    0.21695   0.21697   0.21698   0.22116   0.22117
 Alpha virt. eigenvalues --    0.22117   0.22117   0.27308   0.27310   0.27310
 Alpha virt. eigenvalues --    0.27310   0.27311   0.28329   0.28331   0.28332
 Alpha virt. eigenvalues --    0.28582   0.29285   0.29286   0.29286   0.33952
 Alpha virt. eigenvalues --    0.33957   0.33959   0.34065   0.34066   0.34069
 Alpha virt. eigenvalues --    0.34463   0.36769   0.36770   0.36771   0.36774
 Alpha virt. eigenvalues --    0.36774   0.36776   0.36778   0.36778   0.37043
 Alpha virt. eigenvalues --    0.37043   0.37043   0.37044   0.37044   0.38020
 Alpha virt. eigenvalues --    0.38021   0.38022   0.38022   0.38573   0.38575
 Alpha virt. eigenvalues --    0.38575   0.39901   0.39901   0.39901   0.39901
 Alpha virt. eigenvalues --    0.40095   0.40095   0.40096   0.40096   0.40097
 Alpha virt. eigenvalues --    0.40391   0.41782   0.41783   0.41784   0.42200
 Alpha virt. eigenvalues --    0.42201   0.42204   0.42904   0.42907   0.42907
 Alpha virt. eigenvalues --    0.42907   0.43310   0.43310   0.43310   0.43310
 Alpha virt. eigenvalues --    0.43310   0.43826   0.43828   0.43829   0.43830
 Alpha virt. eigenvalues --    0.43834   0.44332   0.44332   0.44333   0.44334
 Alpha virt. eigenvalues --    0.45048   0.45048   0.45049   0.45051   0.45051
 Alpha virt. eigenvalues --    0.45879   0.45880   0.45880   0.46478   0.46483
 Alpha virt. eigenvalues --    0.46483   0.48645   0.48645   0.48646   0.48833
 Alpha virt. eigenvalues --    0.48834   0.48835   0.48835   0.48837   0.49156
 Alpha virt. eigenvalues --    0.49156   0.49157   0.49159   0.51761   0.51761
 Alpha virt. eigenvalues --    0.51762   0.51762   0.51762   0.52004   0.52006
 Alpha virt. eigenvalues --    0.52007   0.52007   0.53462   0.53463   0.53465
 Alpha virt. eigenvalues --    0.53465   0.53819   0.53819   0.53821   0.53821
 Alpha virt. eigenvalues --    0.53822   0.54592   0.54594   0.54596   0.55558
 Alpha virt. eigenvalues --    0.55559   0.55560   0.55560   0.55562   0.55817
 Alpha virt. eigenvalues --    0.55818   0.55820   0.55821   0.55823   0.55941
 Alpha virt. eigenvalues --    0.55942   0.55945   0.55948   0.57019   0.57019
 Alpha virt. eigenvalues --    0.57019   0.57161   0.57162   0.57162   0.58675
 Alpha virt. eigenvalues --    0.58680   0.58680   0.58698   0.58698   0.58699
 Alpha virt. eigenvalues --    0.58699   0.60616   0.60616   0.60616   0.60617
 Alpha virt. eigenvalues --    0.60968   0.60968   0.60968   0.60968   0.60969
 Alpha virt. eigenvalues --    0.61411   0.61411   0.61412   0.61412   0.61413
 Alpha virt. eigenvalues --    0.62938   0.62939   0.62941   0.63068   0.63069
 Alpha virt. eigenvalues --    0.63073   0.63073   0.65893   0.65893   0.65893
 Alpha virt. eigenvalues --    0.65918   0.65920   0.65921   0.66043   0.66045
 Alpha virt. eigenvalues --    0.66046   0.66046   0.67291   0.67292   0.67292
 Alpha virt. eigenvalues --    0.67295   0.67296   0.68017   0.69597   0.69599
 Alpha virt. eigenvalues --    0.69599   0.73908   0.73908   0.73909   0.73910
 Alpha virt. eigenvalues --    0.74233   0.74620   0.74621   0.74622   0.74623
 Alpha virt. eigenvalues --    0.74623   0.74795   0.74795   0.74796   0.77651
 Alpha virt. eigenvalues --    0.77651   0.77652   0.78215   0.78215   0.78216
 Alpha virt. eigenvalues --    0.79416   0.79416   0.79416   0.79872   0.79872
 Alpha virt. eigenvalues --    0.79872   0.79872   0.80310   0.80311   0.80311
 Alpha virt. eigenvalues --    0.80313   0.80314   0.85079   0.85079   0.85080
 Alpha virt. eigenvalues --    0.85080   0.86233   0.86234   0.86234   0.86234
 Alpha virt. eigenvalues --    0.86235   0.87989   0.87990   0.87990   0.87990
 Alpha virt. eigenvalues --    0.87991   0.88749   0.88749   0.88754   0.90361
 Alpha virt. eigenvalues --    0.90365   0.90368   0.96463   0.96463   0.96465
 Alpha virt. eigenvalues --    0.96465   0.96478   0.96479   0.96480   0.96481
 Alpha virt. eigenvalues --    0.96481   0.97283   0.97283   0.97285   0.97468
 Alpha virt. eigenvalues --    0.97469   0.97471   1.01445   1.01445   1.01445
 Alpha virt. eigenvalues --    1.01447   1.05199   1.05199   1.05200   1.05201
 Alpha virt. eigenvalues --    1.05202   1.08553   1.08553   1.08553   1.08554
 Alpha virt. eigenvalues --    1.08555   1.09755   1.09756   1.09758   1.09759
 Alpha virt. eigenvalues --    1.09761   1.10463   1.10463   1.10464   1.10465
 Alpha virt. eigenvalues --    1.10825   1.10826   1.10826   1.10827   1.10828
 Alpha virt. eigenvalues --    1.11618   1.11619   1.11620   1.11620   1.17819
 Alpha virt. eigenvalues --    1.19695   1.19698   1.19701   1.20234   1.20235
 Alpha virt. eigenvalues --    1.20240   1.21702   1.21702   1.21703   1.22967
 Alpha virt. eigenvalues --    1.22969   1.22969   1.22970   1.22971   1.23023
 Alpha virt. eigenvalues --    1.23029   1.23032   1.23033   1.23670   1.23671
 Alpha virt. eigenvalues --    1.23671   1.26222   1.26226   1.26229   1.30124
 Alpha virt. eigenvalues --    1.30124   1.30125   1.32437   1.32439   1.32440
 Alpha virt. eigenvalues --    1.32441   1.32443   1.33437   1.33439   1.33440
 Alpha virt. eigenvalues --    1.33441   1.33968   1.36430   1.36823   1.36823
 Alpha virt. eigenvalues --    1.36825   1.37060   1.37062   1.37063   1.37066
 Alpha virt. eigenvalues --    1.37067   1.37174   1.37175   1.37176   1.39866
 Alpha virt. eigenvalues --    1.39867   1.39870   1.39870   1.41730   1.41730
 Alpha virt. eigenvalues --    1.41731   1.41731   1.41732   1.41786   1.41786
 Alpha virt. eigenvalues --    1.41787   1.44738   1.44740   1.44740   1.45076
 Alpha virt. eigenvalues --    1.45077   1.45077   1.45080   1.45082   1.46721
 Alpha virt. eigenvalues --    1.46721   1.46723   1.46725   1.46726   1.47352
 Alpha virt. eigenvalues --    1.47354   1.47355   1.47355   1.47435   1.47437
 Alpha virt. eigenvalues --    1.47438   1.47439   1.48791   1.48792   1.48792
 Alpha virt. eigenvalues --    1.48793   1.48825   1.48826   1.48826   1.48827
 Alpha virt. eigenvalues --    1.48828   1.51216   1.51218   1.51218   1.52578
 Alpha virt. eigenvalues --    1.52578   1.52579   1.52579   1.56549   1.56549
 Alpha virt. eigenvalues --    1.56549   1.56707   1.56707   1.56707   1.56708
 Alpha virt. eigenvalues --    1.56710   1.59336   1.59338   1.59338   1.60350
 Alpha virt. eigenvalues --    1.60353   1.60356   1.60361   1.63327   1.63327
 Alpha virt. eigenvalues --    1.63328   1.63330   1.63331   1.65300   1.65301
 Alpha virt. eigenvalues --    1.65302   1.66449   1.66450   1.66454   1.68230
 Alpha virt. eigenvalues --    1.68230   1.68230   1.68231   1.68232   1.69795
 Alpha virt. eigenvalues --    1.69796   1.69798   1.71249   1.71250   1.71251
 Alpha virt. eigenvalues --    1.71255   1.71256   1.72980   1.72981   1.72983
 Alpha virt. eigenvalues --    1.72986   1.77668   1.77671   1.77672   1.77672
 Alpha virt. eigenvalues --    1.77674   1.78037   1.78037   1.78039   1.80310
 Alpha virt. eigenvalues --    1.80315   1.80320   1.80555   1.80557   1.80560
 Alpha virt. eigenvalues --    1.80561   1.80563   1.82641   1.82642   1.82643
 Alpha virt. eigenvalues --    1.82645   1.84392   1.84396   1.84396   1.84398
 Alpha virt. eigenvalues --    1.89409   1.89409   1.89411   1.89582   1.89583
 Alpha virt. eigenvalues --    1.89584   1.89587   1.89588   1.90609   1.90611
 Alpha virt. eigenvalues --    1.90613   1.90614   1.90615   1.92421   1.92423
 Alpha virt. eigenvalues --    1.92426   1.92429   1.95448   1.95448   1.95449
 Alpha virt. eigenvalues --    2.00300   2.00303   2.00307   2.00308   2.01483
 Alpha virt. eigenvalues --    2.01484   2.01486   2.01816   2.01821   2.01821
 Alpha virt. eigenvalues --    2.02943   2.02945   2.02945   2.02947   2.02949
 Alpha virt. eigenvalues --    2.03259   2.03265   2.03266   2.03267   2.03269
 Alpha virt. eigenvalues --    2.07650   2.07650   2.07654   2.08347   2.08349
 Alpha virt. eigenvalues --    2.08349   2.11162   2.11163   2.11163   2.11164
 Alpha virt. eigenvalues --    2.11164   2.15273   2.15274   2.15276   2.20249
 Alpha virt. eigenvalues --    2.20252   2.20252   2.20254   2.20256   2.21831
 Alpha virt. eigenvalues --    2.21838   2.21843   2.22962   2.22963   2.22965
 Alpha virt. eigenvalues --    2.22965   2.22967   2.24243   2.24244   2.24244
 Alpha virt. eigenvalues --    2.26518   2.26521   2.26521   2.26524   2.26524
 Alpha virt. eigenvalues --    2.28472   2.28473   2.28474   2.28474   2.32906
 Alpha virt. eigenvalues --    2.32911   2.32913   2.32914   2.32916   2.37773
 Alpha virt. eigenvalues --    2.37775   2.37776   2.37778   2.38045   2.38045
 Alpha virt. eigenvalues --    2.38047   2.38048   2.40698   2.40699   2.40699
 Alpha virt. eigenvalues --    2.40700   2.40701   2.41084   2.41084   2.41087
 Alpha virt. eigenvalues --    2.41088   2.42972   2.42974   2.42977   2.43095
 Alpha virt. eigenvalues --    2.46282   2.46286   2.46286   2.49180   2.49182
 Alpha virt. eigenvalues --    2.49184   2.51112   2.51116   2.51117   2.53308
 Alpha virt. eigenvalues --    2.53309   2.53309   2.54414   2.54415   2.54417
 Alpha virt. eigenvalues --    2.54417   2.57888   2.57892   2.57894   2.57895
 Alpha virt. eigenvalues --    2.57896   2.58585   2.59167   2.59169   2.59169
 Alpha virt. eigenvalues --    2.60673   2.60675   2.60676   2.60678   2.63111
 Alpha virt. eigenvalues --    2.63112   2.63112   2.63113   2.63113   2.63746
 Alpha virt. eigenvalues --    2.63750   2.63751   2.63753   2.63754   2.69800
 Alpha virt. eigenvalues --    2.69802   2.69803   2.71883   2.71883   2.71884
 Alpha virt. eigenvalues --    2.71885   2.73306   2.73308   2.73309   2.73310
 Alpha virt. eigenvalues --    2.80009   2.80009   2.80010   2.80011   2.80011
 Alpha virt. eigenvalues --    2.85211   2.85214   2.85215   2.85792   2.85793
 Alpha virt. eigenvalues --    2.85793   2.85794   2.85794   2.92040   2.92041
 Alpha virt. eigenvalues --    2.92045   2.92047   2.92923   2.92924   2.92924
 Alpha virt. eigenvalues --    2.95501   2.95771   2.95773   2.95773   2.98131
 Alpha virt. eigenvalues --    2.98132   2.98132   2.98134   2.98134   2.99373
 Alpha virt. eigenvalues --    2.99373   2.99374   2.99375   2.99375   3.02077
 Alpha virt. eigenvalues --    3.02077   3.02078   3.02078   3.02079   3.03400
 Alpha virt. eigenvalues --    3.03401   3.03403   3.04484   3.04486   3.04488
 Alpha virt. eigenvalues --    3.04492   3.05015   3.05017   3.05017   3.05017
 Alpha virt. eigenvalues --    3.05354   3.05354   3.05355   3.08677   3.08677
 Alpha virt. eigenvalues --    3.08678   3.08680   3.08682   3.10749   3.10750
 Alpha virt. eigenvalues --    3.10751   3.10752   3.11487   3.11489   3.11491
 Alpha virt. eigenvalues --    3.11492   3.11493   3.12873   3.12873   3.12874
 Alpha virt. eigenvalues --    3.12874   3.13319   3.13320   3.13321   3.13321
 Alpha virt. eigenvalues --    3.13322   3.16816   3.16819   3.16819   3.18474
 Alpha virt. eigenvalues --    3.18476   3.18477   3.18997   3.18998   3.18999
 Alpha virt. eigenvalues --    3.18999   3.22327   3.22330   3.22332   3.42244
 Alpha virt. eigenvalues --    3.45149   3.45151   3.45152   3.52850   3.52852
 Alpha virt. eigenvalues --    3.52857   3.52860   3.53135   3.53136   3.53138
 Alpha virt. eigenvalues --    3.53711   3.53714   3.53714   3.53717   3.53718
 Alpha virt. eigenvalues --    3.54830   3.54833   3.54833   3.54834   3.61029
 Alpha virt. eigenvalues --    3.61032   3.61033   3.69030   3.69033   3.69034
 Alpha virt. eigenvalues --    3.70703   3.70705   3.70706   3.70707   3.70709
 Alpha virt. eigenvalues --    3.71482   3.71485   3.71486   3.71487   3.71487
 Alpha virt. eigenvalues --    3.73590   3.73591   3.73592   3.73593   3.84577
 Alpha virt. eigenvalues --    3.84579   3.84580   3.84580   3.84580   3.86422
 Alpha virt. eigenvalues --    3.86426   3.86427   3.86695   3.86695   3.86695
 Alpha virt. eigenvalues --    3.86697   3.89427   3.89429   3.89429   3.89431
 Alpha virt. eigenvalues --    3.89431   3.94159   3.94159   3.94160   4.18386
 Alpha virt. eigenvalues --    4.18386   4.18388   4.33085   4.33089   4.33089
 Alpha virt. eigenvalues --    4.33090   4.33095   4.41384   4.41387   4.41397
 Alpha virt. eigenvalues --    4.62227   4.62228   4.62229   4.62234   4.65532
 Alpha virt. eigenvalues --    4.65535   4.65537   4.65539   4.65542   4.84958
 Alpha virt. eigenvalues --    4.84963   4.84965   4.98328   4.98329   4.98331
 Alpha virt. eigenvalues --    4.98331   5.03395   5.05664   5.05670   5.05671
 Alpha virt. eigenvalues --   22.98527  23.21648  23.21649  23.21651  23.47851
 Alpha virt. eigenvalues --   23.47855  23.47855  23.47858  23.47858  23.68473
 Alpha virt. eigenvalues --   23.68477  23.68478  23.68485  23.77153  23.77155
 Alpha virt. eigenvalues --   23.77158  23.83405  23.83405  23.83409  23.83412
 Alpha virt. eigenvalues --   23.93894  23.93894  23.93896  23.93903  23.93907
 Alpha virt. eigenvalues --   23.94448  23.94450  23.94458  23.96531  23.96534
 Alpha virt. eigenvalues --   23.96536  23.96536  23.96539  23.97134  23.97136
 Alpha virt. eigenvalues --   23.97137  23.97140  23.97140  24.01367  24.01373
 Alpha virt. eigenvalues --   24.01374  24.08164  24.08169  24.08170  24.08171
 Alpha virt. eigenvalues --   24.09245  24.09248  24.09249  24.09863  24.09869
 Alpha virt. eigenvalues --   24.09873  24.09874  24.11309  24.11313  24.11324
 Alpha virt. eigenvalues --   24.11415  24.11422  24.11422  24.11430  24.11430
          Condensed to atoms (all electrons):
 Mulliken charges:
               1
     1  C    0.000071
     2  C   -0.000049
     3  C    0.000025
     4  C    0.000010
     5  C   -0.000009
     6  C    0.000012
     7  C    0.000026
     8  C   -0.000018
     9  C   -0.000066
    10  C    0.000025
    11  C   -0.000066
    12  C    0.000071
    13  C   -0.000049
    14  C   -0.000026
    15  C   -0.000025
    16  C    0.000011
    17  C    0.000019
    18  C    0.000019
    19  C    0.000010
    20  C    0.000010
    21  C    0.000045
    22  C   -0.000018
    23  C   -0.000009
    24  C    0.000034
    25  C    0.000034
    26  C   -0.000009
    27  C    0.000045
    28  C   -0.000018
    29  C    0.000026
    30  C    0.000010
    31  C   -0.000049
    32  C    0.000013
    33  C   -0.000025
    34  C   -0.000040
    35  C   -0.000026
    36  C   -0.000040
    37  C   -0.000026
    38  C    0.000034
    39  C    0.000046
    40  C   -0.000025
    41  C    0.000071
    42  C    0.000071
    43  C    0.000025
    44  C    0.000025
    45  C   -0.000026
    46  C    0.000011
    47  C   -0.000049
    48  C   -0.000026
    49  C    0.000034
    50  C   -0.000040
    51  C   -0.000040
    52  C    0.000045
    53  C    0.000019
    54  C   -0.000018
    55  C   -0.000009
    56  C    0.000010
    57  C   -0.000066
    58  C    0.000010
    59  C    0.000019
    60  C   -0.000066
 Sum of Mulliken charges =  -0.00000
 Mulliken charges with hydrogens summed into heavy atoms:
               1
     1  C    0.000071
     2  C   -0.000049
     3  C    0.000025
     4  C    0.000010
     5  C   -0.000009
     6  C    0.000012
     7  C    0.000026
     8  C   -0.000018
     9  C   -0.000066
    10  C    0.000025
    11  C   -0.000066
    12  C    0.000071
    13  C   -0.000049
    14  C   -0.000026
    15  C   -0.000025
    16  C    0.000011
    17  C    0.000019
    18  C    0.000019
    19  C    0.000010
    20  C    0.000010
    21  C    0.000045
    22  C   -0.000018
    23  C   -0.000009
    24  C    0.000034
    25  C    0.000034
    26  C   -0.000009
    27  C    0.000045
    28  C   -0.000018
    29  C    0.000026
    30  C    0.000010
    31  C   -0.000049
    32  C    0.000013
    33  C   -0.000025
    34  C   -0.000040
    35  C   -0.000026
    36  C   -0.000040
    37  C   -0.000026
    38  C    0.000034
    39  C    0.000046
    40  C   -0.000025
    41  C    0.000071
    42  C    0.000071
    43  C    0.000025
    44  C    0.000025
    45  C   -0.000026
    46  C    0.000011
    47  C   -0.000049
    48  C   -0.000026
    49  C    0.000034
    50  C   -0.000040
    51  C   -0.000040
    52  C    0.000045
    53  C    0.000019
    54  C   -0.000018
    55  C   -0.000009
    56  C    0.000010
    57  C   -0.000066
    58  C    0.000010
    59  C    0.000019
    60  C   -0.000066
 Electronic spatial extent (au):  <R**2>=          16946.2707
 Charge=             -0.0000 electrons
 Dipole moment (field-independent basis, Debye):
    X=             -0.0000    Y=              0.0000    Z=             -0.0000  Tot=              0.0000
 Quadrupole moment (field-independent basis, Debye-Ang):
   XX=           -334.9447   YY=           -334.9404   ZZ=           -334.9383
   XY=              0.0000   XZ=              0.0000   YZ=              0.0001
 Traceless Quadrupole moment (field-independent basis, Debye-Ang):
   XX=             -0.0035   YY=              0.0007   ZZ=              0.0028
   XY=              0.0000   XZ=              0.0000   YZ=              0.0001
 Octapole moment (field-independent basis, Debye-Ang**2):
  XXX=             -0.0002  YYY=              0.0001  ZZZ=             -0.0003  XYY=             -0.0000
  XXY=              0.0001  XXZ=              0.0000  XZZ=             -0.0000  YZZ=              0.0000
  YYZ=             -0.0001  XYZ=             -0.0001
 Hexadecapole moment (field-independent basis, Debye-Ang**3):
 XXXX=          -8821.3017 YYYY=          -8820.6309 ZZZZ=          -8820.6246 XXXY=              0.0000
 XXXZ=             -0.0001 YYYX=              0.0000 YYYZ=              0.0994 ZZZX=             -0.0000
 ZZZY=              0.0915 XXYY=          -2940.3249 XXZZ=          -2940.3288 YYZZ=          -2940.2161
 XXYZ=              0.0297 YYXZ=             -0.0000 ZZXY=             -0.0000
 N-N= 8.327278170420D+03 E-N=-2.195473417617D+04  KE= 2.276912797635D+03
 There are a total of     1350600 grid points.
 ElSum from          density=      360.0004684872
 ElSum from atomic densities=      360.0002712233
 Hirshfeld populations at iteration   1 (CA, CB, DipXYZ):
               1          2          3          4          5
     1  C    2.999999   2.999999   0.003421  -0.004749   0.040229
     2  C    3.000001   3.000001   0.005569   0.001816   0.040280
     3  C    2.999993   2.999993   0.019594  -0.027010   0.023243
     4  C    3.000007   3.000007   0.031784   0.010333   0.023293
     5  C    3.000004   3.000004   0.031771   0.016220   0.019655
     6  C    3.000005   3.000005  -0.000000   0.005869   0.040288
     7  C    2.999998   2.999998  -0.000000   0.033406   0.023251
     8  C    3.000000   3.000000   0.005582   0.035193   0.019628
     9  C    3.000002   3.000002  -0.016180  -0.031788   0.019670
    10  C    2.999993   2.999993  -0.019594  -0.027010   0.023243
    11  C    3.000002   3.000002   0.016180  -0.031788   0.019670
    12  C    2.999999   2.999999  -0.003421  -0.004749   0.040229
    13  C    3.000001   3.000001  -0.005569   0.001816   0.040280
    14  C    3.000013   3.000013  -0.025242  -0.025244   0.019687
    15  C    3.000007   3.000007  -0.035263   0.005568   0.019681
    16  C    3.000007   3.000007  -0.031784   0.010333   0.023293
    17  C    3.000001   3.000001   0.003444  -0.038126  -0.013765
    18  C    3.000001   3.000001  -0.003444  -0.038126  -0.013765
    19  C    3.000002   3.000002   0.019625  -0.032871   0.013755
    20  C    3.000002   3.000002  -0.019625  -0.032871   0.013755
    21  C    3.000003   3.000003  -0.025192  -0.028840   0.013748
    22  C    3.000000   3.000000  -0.005582  -0.035193  -0.019628
    23  C    3.000004   3.000004  -0.031771  -0.016220  -0.019655
    24  C    3.000010   3.000010  -0.035229  -0.015109  -0.013769
    25  C    3.000011   3.000011   0.035229  -0.015109  -0.013769
    26  C    3.000004   3.000004   0.031771  -0.016220  -0.019655
    27  C    3.000002   3.000002   0.025192  -0.028840   0.013748
    28  C    3.000000   3.000000   0.005582  -0.035193  -0.019628
    29  C    2.999998   2.999998  -0.000000  -0.033406  -0.023251
    30  C    3.000007   3.000007   0.031784  -0.010333  -0.023293
    31  C    3.000001   3.000001   0.005569  -0.001816  -0.040280
    32  C    3.000005   3.000005  -0.000000  -0.005869  -0.040288
    33  C    3.000007   3.000007   0.035263   0.005568   0.019681
    34  C    3.000015   3.000015   0.037438   0.008513   0.013798
    35  C    3.000013   3.000013   0.025242  -0.025244   0.019687
    36  C    3.000015   3.000015   0.037438  -0.008513  -0.013798
    37  C    3.000007   3.000007   0.035263  -0.005568  -0.019681
    38  C    3.000010   3.000010   0.035229   0.015109   0.013769
    39  C    3.000002   3.000002   0.025192   0.028840  -0.013748
    40  C    3.000013   3.000013   0.025243   0.025244  -0.019687
    41  C    2.999999   2.999999  -0.003421   0.004749  -0.040229
    42  C    2.999999   2.999999   0.003421   0.004749  -0.040229
    43  C    2.999993   2.999993   0.019594   0.027010  -0.023243
    44  C    2.999993   2.999993  -0.019594   0.027010  -0.023243
    45  C    3.000007   3.000007  -0.035263  -0.005568  -0.019681
    46  C    3.000007   3.000007  -0.031784  -0.010333  -0.023293
    47  C    3.000001   3.000001  -0.005569  -0.001816  -0.040280
    48  C    3.000013   3.000013  -0.025243   0.025244  -0.019687
    49  C    3.000010   3.000010  -0.035229   0.015109   0.013769
    50  C    3.000015   3.000015  -0.037438   0.008513   0.013798
    51  C    3.000015   3.000015  -0.037438  -0.008513  -0.013798
    52  C    3.000002   3.000002  -0.025192   0.028840  -0.013748
    53  C    3.000001   3.000001  -0.003445   0.038125   0.013765
    54  C    3.000000   3.000000  -0.005582   0.035193   0.019628
    55  C    3.000004   3.000004  -0.031771   0.016220   0.019655
    56  C    3.000002   3.000002  -0.019625   0.032871  -0.013755
    57  C    3.000002   3.000002   0.016180   0.031788  -0.019670
    58  C    3.000001   3.000001   0.019625   0.032871  -0.013755
    59  C    3.000001   3.000001   0.003445   0.038125   0.013765
    60  C    3.000002   3.000002  -0.016180   0.031788  -0.019670
       Tot 180.000234 180.000234  -0.000000   0.000000  -0.000000

 Dip from Atomic Chgs             -0.000007   0.000008  -0.000010
         Total Dipole             -0.000007   0.000008  -0.000010

 Hirshfeld charges, spin densities, dipoles, and CM5 charges using IRadAn=      5:
              Q-H        S-H        Dx         Dy         Dz        Q-CM5   
     1  C    0.000003   0.000000   0.003421  -0.004749   0.040229   0.000003
     2  C   -0.000002   0.000000   0.005569   0.001816   0.040280  -0.000002
     3  C    0.000013   0.000000   0.019594  -0.027010   0.023243   0.000013
     4  C   -0.000014   0.000000   0.031784   0.010333   0.023293  -0.000014
     5  C   -0.000008   0.000000   0.031771   0.016220   0.019655  -0.000008
     6  C   -0.000010   0.000000  -0.000000   0.005869   0.040288  -0.000010
     7  C    0.000005   0.000000  -0.000000   0.033406   0.023251   0.000005
     8  C   -0.000001   0.000000   0.005582   0.035193   0.019628  -0.000001
     9  C   -0.000004   0.000000  -0.016180  -0.031788   0.019670  -0.000004
    10  C    0.000013   0.000000  -0.019594  -0.027010   0.023243   0.000013
    11  C   -0.000004   0.000000   0.016180  -0.031788   0.019670  -0.000004
    12  C    0.000003   0.000000  -0.003421  -0.004749   0.040229   0.000003
    13  C   -0.000002   0.000000  -0.005569   0.001816   0.040280  -0.000002
    14  C   -0.000027   0.000000  -0.025242  -0.025244   0.019687  -0.000027
    15  C   -0.000014   0.000000  -0.035263   0.005568   0.019681  -0.000014
    16  C   -0.000014   0.000000  -0.031784   0.010333   0.023293  -0.000014
    17  C   -0.000002   0.000000   0.003444  -0.038126  -0.013765  -0.000002
    18  C   -0.000002   0.000000  -0.003444  -0.038126  -0.013765  -0.000002
    19  C   -0.000003   0.000000   0.019625  -0.032871   0.013755  -0.000003
    20  C   -0.000003   0.000000  -0.019625  -0.032871   0.013755  -0.000003
    21  C   -0.000005   0.000000  -0.025192  -0.028840   0.013748  -0.000005
    22  C   -0.000001   0.000000  -0.005582  -0.035193  -0.019628  -0.000001
    23  C   -0.000008   0.000000  -0.031771  -0.016220  -0.019655  -0.000008
    24  C   -0.000021   0.000000  -0.035229  -0.015109  -0.013769  -0.000021
    25  C   -0.000021   0.000000   0.035229  -0.015109  -0.013769  -0.000021
    26  C   -0.000008   0.000000   0.031771  -0.016220  -0.019655  -0.000008
    27  C   -0.000005   0.000000   0.025192  -0.028840   0.013748  -0.000005
    28  C   -0.000001   0.000000   0.005582  -0.035193  -0.019628  -0.000001
    29  C    0.000005   0.000000  -0.000000  -0.033406  -0.023251   0.000005
    30  C   -0.000015   0.000000   0.031784  -0.010333  -0.023293  -0.000015
    31  C   -0.000001   0.000000   0.005569  -0.001816  -0.040280  -0.000001
    32  C   -0.000010   0.000000  -0.000000  -0.005869  -0.040288  -0.000010
    33  C   -0.000014   0.000000   0.035263   0.005568   0.019681  -0.000014
    34  C   -0.000030   0.000000   0.037438   0.008513   0.013798  -0.000030
    35  C   -0.000027   0.000000   0.025242  -0.025244   0.019687  -0.000027
    36  C   -0.000030   0.000000   0.037438  -0.008513  -0.013798  -0.000030
    37  C   -0.000014   0.000000   0.035263  -0.005568  -0.019681  -0.000014
    38  C   -0.000021   0.000000   0.035229   0.015109   0.013769  -0.000021
    39  C   -0.000005   0.000000   0.025192   0.028840  -0.013748  -0.000005
    40  C   -0.000027   0.000000   0.025243   0.025244  -0.019687  -0.000027
    41  C    0.000003   0.000000  -0.003421   0.004749  -0.040229   0.000003
    42  C    0.000003   0.000000   0.003421   0.004749  -0.040229   0.000003
    43  C    0.000014   0.000000   0.019594   0.027010  -0.023243   0.000014
    44  C    0.000014   0.000000  -0.019594   0.027010  -0.023243   0.000014
    45  C   -0.000014   0.000000  -0.035263  -0.005568  -0.019681  -0.000014
    46  C   -0.000015   0.000000  -0.031784  -0.010333  -0.023293  -0.000015
    47  C   -0.000001   0.000000  -0.005569  -0.001816  -0.040280  -0.000001
    48  C   -0.000027   0.000000  -0.025243   0.025244  -0.019687  -0.000027
    49  C   -0.000021   0.000000  -0.035229   0.015109   0.013769  -0.000021
    50  C   -0.000030   0.000000  -0.037438   0.008513   0.013798  -0.000030
    51  C   -0.000030   0.000000  -0.037438  -0.008513  -0.013798  -0.000030
    52  C   -0.000005   0.000000  -0.025192   0.028840  -0.013748  -0.000005
    53  C   -0.000002   0.000000  -0.003445   0.038125   0.013765  -0.000002
    54  C   -0.000001   0.000000  -0.005582   0.035193   0.019628  -0.000001
    55  C   -0.000008   0.000000  -0.031771   0.016220   0.019655  -0.000008
    56  C   -0.000003   0.000000  -0.019625   0.032871  -0.013755  -0.000003
    57  C   -0.000004   0.000000   0.016180   0.031788  -0.019670  -0.000004
    58  C   -0.000003   0.000000   0.019625   0.032871  -0.013755  -0.000003
    59  C   -0.000002   0.000000   0.003445   0.038125   0.013765  -0.000002
    60  C   -0.000004   0.000000  -0.016180   0.031788  -0.019670  -0.000004
       Tot  -0.000468   0.000000  -0.000000   0.000000  -0.000000  -0.000468
 Hirshfeld charges with hydrogens summed into heavy atoms:
              Q-H       Q-CM5   
     1  C    0.000003   0.000003
     2  C   -0.000002  -0.000002
     3  C    0.000013   0.000013
     4  C   -0.000014  -0.000014
     5  C   -0.000008  -0.000008
     6  C   -0.000010  -0.000010
     7  C    0.000005   0.000005
     8  C   -0.000001  -0.000001
     9  C   -0.000004  -0.000004
    10  C    0.000013   0.000013
    11  C   -0.000004  -0.000004
    12  C    0.000003   0.000003
    13  C   -0.000002  -0.000002
    14  C   -0.000027  -0.000027
    15  C   -0.000014  -0.000014
    16  C   -0.000014  -0.000014
    17  C   -0.000002  -0.000002
    18  C   -0.000002  -0.000002
    19  C   -0.000003  -0.000003
    20  C   -0.000003  -0.000003
    21  C   -0.000005  -0.000005
    22  C   -0.000001  -0.000001
    23  C   -0.000008  -0.000008
    24  C   -0.000021  -0.000021
    25  C   -0.000021  -0.000021
    26  C   -0.000008  -0.000008
    27  C   -0.000005  -0.000005
    28  C   -0.000001  -0.000001
    29  C    0.000005   0.000005
    30  C   -0.000015  -0.000015
    31  C   -0.000001  -0.000001
    32  C   -0.000010  -0.000010
    33  C   -0.000014  -0.000014
    34  C   -0.000030  -0.000030
    35  C   -0.000027  -0.000027
    36  C   -0.000030  -0.000030
    37  C   -0.000014  -0.000014
    38  C   -0.000021  -0.000021
    39  C   -0.000005  -0.000005
    40  C   -0.000027  -0.000027
    41  C    0.000003   0.000003
    42  C    0.000003   0.000003
    43  C    0.000014   0.000014
    44  C    0.000014   0.000014
    45  C   -0.000014  -0.000014
    46  C   -0.000015  -0.000015
    47  C   -0.000001  -0.000001
    48  C   -0.000027  -0.000027
    49  C   -0.000021  -0.000021
    50  C   -0.000030  -0.000030
    51  C   -0.000030  -0.000030
    52  C   -0.000005  -0.000005
    53  C   -0.000002  -0.000002
    54  C   -0.000001  -0.000001
    55  C   -0.000008  -0.000008
    56  C   -0.000003  -0.000003
    57  C   -0.000004  -0.000004
    58  C   -0.000003  -0.000003
    59  C   -0.000002  -0.000002
    60  C   -0.000004  -0.000004
 
 EQQ=  0.00000000000     EQD=  0.00000000000     EDD= 0.947960610349E-02
 EQQ+QD+DD= 0.947960610349E-02
 
 1\1\GINC-CU21\SP\RB3LYP\6-311G(d)\C60\WANG\06-Jun-2025\0\\# B3LYP/6-31
 1G* Pop=Hirshfeld NOSYMM\\From ../B3LYP_opt/C60_1812.out\\0,1\C,0,0.72
 6682,-1.000201,3.327306\C,0,1.175847,0.382065,3.327388\C,0,1.42434,-1.
 960465,2.593896\C,0,2.304758,0.748829,2.593967\C,0,2.304751,1.985181,1
 .829844\C,0,0.,1.236379,3.327397\C,0,0.,2.423208,2.593861\C,0,1.175873
 ,2.805238,1.82977\C,0,-0.697674,-2.960903,1.829932\C,0,-1.42434,-1.960
 465,2.593896\C,0,0.697674,-2.960903,1.829932\C,0,-0.726682,-1.000201,3
 .327306\C,0,-1.175847,0.382065,3.327388\C,0,-2.600298,-1.578454,1.8298
 82\C,0,-3.031497,-0.251454,1.829882\C,0,-2.304758,0.748829,2.593967\C,
 0,0.726699,-3.423354,-0.593413\C,0,-0.726699,-3.423354,-0.593413\C,0,1
 .424323,-3.196757,0.593475\C,0,-1.424323,-3.196757,0.593475\C,0,-2.600
 149,-2.342416,0.59345\C,0,-1.175873,-2.805238,-1.82977\C,0,-2.304751,-
 1.985181,-1.829844\C,0,-3.031397,-1.749021,-0.593443\C,0,3.031397,-1.7
 49021,-0.593443\C,0,2.304751,-1.985181,-1.829844\C,0,2.600149,-2.34241
 6,0.59345\C,0,1.175873,-2.805238,-1.82977\C,0,0.,-2.423208,-2.593861\C
 ,0,2.304758,-0.748829,-2.593967\C,0,1.175847,-0.382065,-3.327388\C,0,0
 .,-1.236379,-3.327397\C,0,3.031497,-0.251454,1.829882\C,0,3.480634,0.3
 66757,0.593485\C,0,2.600298,-1.578454,1.829883\C,0,3.480634,-0.366757,
 -0.593485\C,0,3.031496,0.251454,-1.829882\C,0,3.031397,1.749021,0.5934
 43\C,0,2.600149,2.342416,-0.59345\C,0,2.600298,1.578454,-1.829882\C,0,
 -0.726682,1.000201,-3.327306\C,0,0.726682,1.000201,-3.327306\C,0,1.424
 34,1.960465,-2.593896\C,0,-1.42434,1.960465,-2.593896\C,0,-3.031496,0.
 251454,-1.829882\C,0,-2.304758,-0.748829,-2.593967\C,0,-1.175847,-0.38
 2065,-3.327388\C,0,-2.600298,1.578454,-1.829882\C,0,-3.031397,1.749021
 ,0.593443\C,0,-3.480634,0.366757,0.593485\C,0,-3.480634,-0.366757,-0.5
 93485\C,0,-2.600149,2.342416,-0.59345\C,0,-0.726699,3.423354,0.593413\
 C,0,-1.175873,2.805238,1.82977\C,0,-2.304751,1.985181,1.829844\C,0,-1.
 424323,3.196757,-0.593475\C,0,0.697674,2.960903,-1.829932\C,0,1.424323
 ,3.196757,-0.593475\C,0,0.726699,3.423354,0.593413\C,0,-0.697674,2.960
 903,-1.829932\\Version=ES64L-G16RevB.01\HF=-2286.5902982\RMSD=5.105e-0
 9\Dipole=-0.0000072,0.000008,-0.00001\Quadrupole=-0.002628,0.0005388,0
 .0020893,0.0000015,0.,0.0000675\PG=CI [X(C60)]\\@


 SUCCESS-- IF YOU HAVE TRIED TO DO SOMETHING AND FAILED
           YOU ARE BETTER OFF THAN IF YOU HAD TRIED TO DO
           NOTHING AND SUCCEEDED.

                   -- FROM THE BACK OF A SUGAR PACKET
 Job cpu time:       0 days  1 hours 34 minutes  4.1 seconds.
 Elapsed time:       0 days  0 hours  5 minutes 15.9 seconds.
 File lengths (MBytes):  RWF=    631 Int=      0 D2E=      0 Chk=     68 Scr=      1
 Normal termination of Gaussian 16 at Fri Jun  6 05:49:32 2025.
