 Entering Gaussian System, Link 0=g16
 Initial command:
 /opt/software/g16/l1.exe "/tmp/cnt_6_5-1_sgp-7661.tmp/Gau-93563.inp" -scrdir="/tmp/cnt_6_5-1_sgp-7661.tmp/"
 Entering Link 1 = /opt/software/g16/l1.exe PID=     93564.
  
 Copyright (c) 1988-2017, Gaussian, Inc.  All Rights Reserved.
  
 This is part of the Gaussian(R) 16 program.  It is based on
 the Gaussian(R) 09 system (copyright 2009, Gaussian, Inc.),
 the Gaussian(R) 03 system (copyright 2003, Gaussian, Inc.),
 the Gaussian(R) 98 system (copyright 1998, Gaussian, Inc.),
 the Gaussian(R) 94 system (copyright 1995, Gaussian, Inc.),
 the Gaussian 92(TM) system (copyright 1992, Gaussian, Inc.),
 the Gaussian 90(TM) system (copyright 1990, Gaussian, Inc.),
 the Gaussian 88(TM) system (copyright 1988, Gaussian, Inc.),
 the Gaussian 86(TM) system (copyright 1986, Carnegie Mellon
 University), and the Gaussian 82(TM) system (copyright 1983,
 Carnegie Mellon University). Gaussian is a federally registered
 trademark of Gaussian, Inc.
  
 This software contains proprietary and confidential information,
 including trade secrets, belonging to Gaussian, Inc.
  
 This software is provided under written license and may be
 used, copied, transmitted, or stored only in accord with that
 written license.
  
 The following legend is applicable only to US Government
 contracts under FAR:
  
                    RESTRICTED RIGHTS LEGEND
  
 Use, reproduction and disclosure by the US Government is
 subject to restrictions as set forth in subparagraphs (a)
 and (c) of the Commercial Computer Software - Restricted
 Rights clause in FAR 52.227-19.
  
 Gaussian, Inc.
 340 Quinnipiac St., Bldg. 40, Wallingford CT 06492
  
  
 ---------------------------------------------------------------
 Warning -- This program may not be used in any manner that
 competes with the business of Gaussian, Inc. or will provide
 assistance to any competitor of Gaussian, Inc.  The licensee
 of this program is prohibited from giving any competitor of
 Gaussian, Inc. access to this program.  By using this program,
 the user acknowledges that Gaussian, Inc. is engaged in the
 business of creating and licensing software in the field of
 computational chemistry and represents and warrants to the
 licensee that it is not a competitor of Gaussian, Inc. and that
 it will not use this program in any manner prohibited above.
 ---------------------------------------------------------------
  

 Cite this work as:
 Gaussian 16, Revision B.01,
 M. J. Frisch, G. W. Trucks, H. B. Schlegel, G. E. Scuseria, 
 M. A. Robb, J. R. Cheeseman, G. Scalmani, V. Barone, 
 G. A. Petersson, H. Nakatsuji, X. Li, M. Caricato, A. V. Marenich, 
 J. Bloino, B. G. Janesko, R. Gomperts, B. Mennucci, H. P. Hratchian, 
 J. V. Ortiz, A. F. Izmaylov, J. L. Sonnenberg, D. Williams-Young, 
 F. Ding, F. Lipparini, F. Egidi, J. Goings, B. Peng, A. Petrone, 
 T. Henderson, D. Ranasinghe, V. G. Zakrzewski, J. Gao, N. Rega, 
 G. Zheng, W. Liang, M. Hada, M. Ehara, K. Toyota, R. Fukuda, 
 J. Hasegawa, M. Ishida, T. Nakajima, Y. Honda, O. Kitao, H. Nakai, 
 T. Vreven, K. Throssell, J. A. Montgomery, Jr., J. E. Peralta, 
 F. Ogliaro, M. J. Bearpark, J. J. Heyd, E. N. Brothers, K. N. Kudin, 
 V. N. Staroverov, T. A. Keith, R. Kobayashi, J. Normand, 
 K. Raghavachari, A. P. Rendell, J. C. Burant, S. S. Iyengar, 
 J. Tomasi, M. Cossi, J. M. Millam, M. Klene, C. Adamo, R. Cammi, 
 J. W. Ochterski, R. L. Martin, K. Morokuma, O. Farkas, 
 J. B. Foresman, and D. J. Fox, Gaussian, Inc., Wallingford CT, 2016.
 
 ******************************************
 Gaussian 16:  ES64L-G16RevB.01 20-Dec-2017
                 8-Jul-2025 
 ******************************************
 %nproc=28
 Will use up to   28 processors via shared memory.
 ------------------------------------
 # B3LYP/6-311G* Pop=Hirshfeld NOSYMM
 ------------------------------------
 1/38=1,172=1/1;
 2/12=2,15=1,17=6,18=5,40=1/2;
 3/5=4,6=6,7=1,11=2,25=1,30=1,74=-5/1,2,3;
 4//1;
 5/5=2,38=5/2;
 6/7=2,8=2,9=2,10=2,28=1,79=1/1;
 99/5=1,9=1/99;
 ----------------------------
 From ../../cnt_6_5-1_opt.out
 ----------------------------
 Symbolic Z-matrix:
 Charge =  0 Multiplicity = 1
 6                     3.74488   0.15271   2.40735 
 6                     3.52891  -1.25896   2.4706 
 6                     3.20555   2.13321   1.08836 
 6                     3.68839   0.8185    1.14447 
 6                     3.74573   0.27784   4.86879 
 6                     3.58121  -1.13362   4.94059 
 6                     3.05542   2.22385   3.51418 
 6                     3.63387   0.92535   3.59431 
 6                     1.46683   3.57104   2.17568 
 6                     2.67359   2.75374   2.23745 
 6                    -0.57562   3.87315   0.87932 
 6                     0.79801   3.86494   0.95111 
 6                     3.75283   0.40259   7.32869 
 6                     3.6322   -1.0162    7.40223 
 6                     2.98893   2.32267   5.98599 
 6                     3.62806   1.04631   6.06029 
 6                     1.32973   3.53944   4.64579 
 6                     2.54098   2.80313   4.71794 
 6                    -0.72525   3.70652   3.29064 
 6                     0.70648   3.72141   3.36396 
 6                    -2.58634   2.79863   1.95293 
 6                    -1.36623   3.57288   2.02862 
 6                    -3.70948   1.07381   0.64691 
 6                    -3.11769   2.31088   0.71937 
 6                     3.74229   0.52946   9.79313 
 6                     3.67115  -0.89496   9.86691 
 6                     2.90983   2.41656   8.4507 
 6                     3.5938    1.16792   8.52446 
 6                     1.21116   3.58735   7.10519 
 6                     2.45071   2.88527   7.17904 
 6                    -0.84964   3.68056   5.76325 
 6                     0.57724   3.74268   5.83682 
 6                    -2.63414   2.66579   4.41829 
 6                    -1.46401   3.46181   4.49383 
 6                    -3.65105   0.873     3.06421 
 6                    -3.05671   2.17497   3.13953 
 6                    -3.62245  -1.1972    1.72923 
 6                    -3.79326   0.23462   1.80144 
 6                    -2.5467   -2.95291   0.42514 
 6                    -3.41305  -1.89202   0.49581 
 6                     3.72276   0.65489   12.25721 
 6                     3.70063  -0.76946   12.33141 
 6                     2.82634   2.51252   10.91282 
 6                     3.55411   1.28755   10.98678 
 6                     1.08773   3.62383   9.56979 
 6                     2.35251   2.96423   9.64382 
 6                    -0.97273   3.64886   8.22573 
 6                     0.44643   3.75538   8.30051 
 6                    -2.74065   2.58594   6.87841 
 6                    -1.58642   3.4241    6.95297 
 6                    -3.68679   0.75328   5.53812 
 6                    -3.14066   2.07034   5.61242 
 6                    -3.52719  -1.29495   4.19482 
 6                    -3.74887   0.10255   4.26797 
 6                    -2.33604  -2.97894   2.84426 
 6                    -3.26354  -1.88865   2.91799 
 6                    -0.44548  -3.81302   1.50771 
 6                    -1.81615  -3.37696   1.58131 
 6                     1.58976  -3.54438   0.19545 
 6                     0.27179  -3.9084    0.27037 
 6                     3.69937   0.781     14.72043 
 6                     3.72556  -0.64358   14.79482 
 6                     2.73942   2.60648   13.37667 
 6                     3.50975   1.4071    13.45078 
 6                     0.96382   3.65448   12.03293 
 6                     2.24849   3.03944   12.10733 
 6                    -1.0979    3.61341   10.68748 
 6                     0.31916   3.76627   10.76234 
 6                    -2.83027   2.4936    9.34397 
 6                    -1.70416   3.36941   9.41839 
 6                    -3.71525   0.63166   8.00033 
 6                    -3.21505   1.96369   8.07423 
 6                    -3.50012  -1.42214   6.65657 
 6                    -3.77058  -0.02135   6.72946 
 6                    -2.23804  -3.05374   5.31797 
 6                    -3.2016   -2.00438   5.39119 
 6                    -0.31177  -3.7655    3.97244 
 6                    -1.67527  -3.38697   4.04699 
 6                     1.70889  -3.36642   2.61806 
 6                     0.33571  -3.77038   2.69493 
 6                     3.22676  -1.97041   1.27513 
 6                     2.27606  -3.0426    1.35091 
 6                     3.82265   0.00251  -0.03403 
 6                     3.58783  -1.34121   0.03056 
 6                     3.67092   0.90649   17.18415 
 6                     3.74557  -0.51667   17.25861 
 6                     2.64895   2.69725   15.84012 
 6                     3.45952   1.52553   15.91448 
 6                     0.83875   3.68474   14.49557 
 6                     2.14412   3.11337   14.5701 
 6                    -1.22052   3.57388   13.1515 
 6                     0.19079   3.77401   13.22615 
 6                    -2.91322   2.39697   11.80726 
 6                    -1.81817   3.30763   11.88174 
 6                    -3.7394    0.50616   10.46308 
 6                    -3.28327   1.85722   10.53663 
 6                    -3.45223  -1.53782   9.12238 
 6                    -3.7714   -0.14817   9.1953 
 6                    -2.13609  -3.12563   7.77982 
 6                    -3.135    -2.11241   7.85294 
 6                    -0.18146  -3.78793   6.43547 
 6                    -1.56788  -3.45191   6.5095 
 6                     1.82176  -3.31182   5.09283 
 6                     0.47058  -3.7579    5.16846 
 6                     3.26172  -1.85007   3.74507 
 6                     2.35433  -2.93598   3.81943 
 6                     3.63754   1.03077   19.64774 
 6                     3.76051  -0.38888   19.72223 
 6                     2.5555    2.78589   18.30332 
 6                     3.4055    1.64228   18.37783 
 6                     0.7129    3.71145   16.95902 
 6                     2.03703   3.18454   17.03358 
 6                    -1.3411    3.53076   15.61484 
 6                     0.06203   3.77772   15.68938 
 6                    -2.99498   2.29842   14.27052 
 6                    -1.93002   3.24552   14.34478 
 6                    -3.75611   0.38088   12.92781 
 6                    -3.34638   1.74619   13.0013 
 6                    -3.39812  -1.65071   11.58538 
 6                    -3.76469  -0.27448   11.65839 
 6                    -2.0288   -3.1951    10.24277 
 6                    -3.06459  -2.21503   10.31586 
 6                    -0.05317  -3.78735   8.90075 
 6                    -1.44886  -3.49944   8.97488 
 6                     1.93546  -3.24908   7.55466 
 6                     0.59965  -3.73948   7.62996 
 6                     3.3438   -1.7429    6.20913 
 6                     2.46433  -2.86597   6.28357 
 6                     3.59995   1.15389   22.11117 
 6                     3.77111  -0.2607    22.18564 
 6                     2.45919   2.8715    20.76675 
 6                     3.34744   1.75727   20.84127 
 6                     0.58642   3.73423   19.42243 
 6                     1.92736   3.2522    19.49701 
 6                    -1.46061   3.48455   18.07811 
 6                    -0.0663    3.77853   18.15254 
 6                    -3.07203   2.197     16.73449 
 6                    -2.0396    3.17941   16.80857 
 6                    -3.76761   0.2551    15.39145 
 6                    -3.40455   1.63281   15.46497 
 6                    -3.34148  -1.76387   14.04876 
 6                    -3.75556  -0.39993   14.12183 
 6                    -1.91922  -3.25849   12.70692 
 6                    -2.9876   -2.31536   12.78022 
 6                     0.07508  -3.78255   11.36324 
 6                    -1.32863  -3.54201   11.43735 
 6                     2.04734  -3.18046   10.01834 
 6                     0.72561  -3.71521   10.09326 
 6                     3.4056   -1.63049   8.67404 
 6                     2.56253  -2.77838   8.74896 
 6                     3.5585    1.27556   24.57443 
 6                     3.7776   -0.13225   24.64877 
 6                     2.36018   2.95388   23.23036 
 6                     3.28567   1.87016   23.30481 
 6                     0.45932   3.75285   21.8859 
 6                     1.8157    3.31628   21.96047 
 6                    -1.5782    3.43434   20.54165 
 6                    -0.19457   3.77524   20.61604 
 6                    -3.14496   2.09287   19.19812 
 6                    -2.14654   3.10952   19.27213 
 6                    -3.77485   0.12846   17.85504 
 6                    -3.45867   1.51803   17.92854 
 6                    -3.28014  -1.87445   16.51264 
 6                    -3.74051  -0.52568   16.58588 
 6                    -1.80789  -3.31933   15.16993 
 6                    -2.90739  -2.41328   15.24338 
 6                     0.20364  -3.77643   13.82648 
 6                    -1.20851  -3.58315   13.90051 
 6                     2.15392  -3.1077    12.48247 
 6                     0.85153  -3.68517   12.5573 
 6                     3.46201  -1.51456   11.13689 
 6                     2.65652  -2.68933   11.21177 
 6                     3.51361   1.39599   27.03804 
 6                     3.78084  -0.00415   27.11215 
 6                     2.25828   3.03201   25.69413 
 6                     3.21988   1.98062   25.76846 
 6                     0.3317    3.76685   24.34938 
 6                     1.70199   3.37633   24.42396 
 6                    -1.694     3.38003   23.00526 
 6                    -0.32256   3.76747   23.0797 
 6                    -3.21434   1.98629   21.66157 
 6                    -2.25096   3.03617   21.73558 
 6                    -3.7773    0.00163   20.31872 
 6                    -3.5084    1.40111   20.3922 
 6                    -3.21496  -1.98318   18.97613 
 6                    -3.7206   -0.65094   19.04948 
 6                    -1.69472  -3.37764   17.63322 
 6                    -2.82459  -2.5091    17.70673 
 6                     0.33104  -3.76585   16.29004 
 6                    -1.08648  -3.62032   16.36409 
 6                     2.25821  -3.0323    14.94564 
 6                     0.97575  -3.65279   15.02027 
 6                     3.5136   -1.39629   13.60105 
 6                     2.74743  -2.59822   13.67568 
 6                     3.46396   1.51335   29.50202 
 6                     3.77969   0.12397   29.57598 
 6                     2.15361   3.10587   28.15753 
 6                     3.15036   2.0882    28.23164 
 6                     0.20325   3.77618   26.81334 
 6                     1.58642   3.43197   26.88794 
 6                    -1.80769   3.32135   25.46872 
 6                    -0.45043   3.75456   25.54334 
 6                    -3.28049   1.87754   24.12486 
 6                    -2.35294   2.95932   24.1989 
 6                    -3.77559  -0.12523   22.7823 
 6                    -3.55422   1.28259   22.85575 
 6                    -3.14622  -2.08986   21.43962 
 6                    -3.69661  -0.77551   21.51296 
 6                    -1.57973  -3.43209   20.0968 
 6                    -2.73831  -2.60232   20.17035 
 6                     0.45795  -3.75151   18.75333 
 6                    -0.96362  -3.65392   18.82738 
 6                     2.35978  -2.95365   17.40921 
 6                     1.09856  -3.61715   17.48366 
 6                     3.55899  -1.27619   16.06501 
 6                     2.83395  -2.50278   16.13958 
 6                     3.41079   1.62759   31.96439 
 6                     3.77472   0.25119   32.03814 
 6                     2.04599   3.17642   30.62201 
 6                     3.07861   2.19272   30.69572 
 6                     0.07466   3.77928   29.27728 
 6                     1.46765   3.4819    29.35209 
 6                    -1.92013   3.25919   27.93175 
 6                    -0.57796   3.73708   28.00657 
 6                    -3.34366   1.76672   26.58844 
 6                    -2.4527    2.87926   26.66251 
 6                    -3.76965  -0.25159   25.24561 
 6                    -3.59631   1.16254   25.31902 
 6                    -3.07401  -2.19412   23.90318 
 6                    -3.66884  -0.89907   23.97642 
 6                    -1.46285  -3.48252   22.56049 
 6                    -2.6489   -2.69247   22.63404 
 6                     0.58435  -3.73312   21.21675 
 6                    -0.83974  -3.68356   21.29084 
 6                     2.45813  -2.87152   19.8728 
 6                     1.22004  -3.57709   19.9472 
 6                     3.60009  -1.15441   18.52847 
 6                     2.9168   -2.40479   18.60301 
 6                     3.35212   1.73951   34.42862 
 6                     3.7677    0.37386   34.50291 
 6                     1.9345    3.2376    33.08668 
 6                     2.99917   2.29208   33.16019 
 6                    -0.05469   3.77893   31.74008 
 6                     1.34707   3.52693   31.81492 
 6                    -2.03207   3.19403   30.39582 
 6                    -0.70524   3.71602   30.47074 
 6                    -3.4026    1.65416   29.05162 
 6                    -2.55024   2.7951    29.1258 
 6                    -3.76043  -0.37775   27.70872 
 6                    -3.63546   1.04186   27.78202 
 6                    -2.99815  -2.29548   26.36716 
 6                    -3.63715  -1.02136   26.44023 
 6                    -1.34428  -3.52832   25.02406 
 6                    -2.55611  -2.77906   25.09759 
 6                     0.7103   -3.71054   23.68032 
 6                    -0.71487  -3.70877   23.75449 
 6                     2.55372  -2.78607   22.33628 
 6                     1.34014  -3.53296   22.41072 
 6                     3.63683  -1.03128   20.9919 
 6                     2.99626  -2.3041    21.06643 
 6                     3.2731    1.83134   36.89465 
 6                     3.74771   0.49134   36.97477 
 6                     1.81688   3.28787   35.54833 
 6                     2.90822   2.37775   35.62012 
 6                    -0.18605   3.7748    34.20544 
 6                     1.22501   3.56593   34.27981 
 6                    -2.1399    3.12451   32.85912 
 6                    -0.83347   3.68846   32.93442 
 6                    -3.46046   1.54032   31.51412 
 6                    -2.64653   2.7101    31.58832 
 6                    -3.74738  -0.50357   30.17303 
 6                    -3.6715    0.9204    30.24618 
 6                    -2.91853  -2.39275   28.83052 
 6                    -3.60045  -1.14239   28.90353 
 6                    -1.22394  -3.5704    27.48771 
 6                    -2.46101  -2.86216   27.56117 
 6                     0.83549  -3.68316   26.14417 
 6                    -0.58894  -3.72913   26.21848 
 6                     2.64645  -2.69743   24.79948 
 6                     1.45889  -3.48454   24.87405 
 6                     3.66961  -0.90693   23.4553 
 6                     3.07251  -2.20091   23.52984 
 6                     3.23881   1.94628   39.3445 
 6                     3.79381   0.66041   39.40063 
 6                     1.69273   3.34294   38.01833 
 6                     2.82141   2.46798   38.0816 
 6                    -0.31391   3.74975   36.66957 
 6                     1.09184   3.58732   36.74386 
 6                    -2.2459    3.04862   35.32059 
 6                    -0.95896   3.65552   35.39622 
 6                    -3.51391   1.4236    33.9795 
 6                    -2.73976   2.62185   34.0536 
 6                    -3.72817  -0.62667   32.63591 
 6                    -3.70151   0.79594   32.70912 
 6                    -2.83685  -2.48918   31.29354 
 6                    -3.5623   -1.26166   31.36645 
 6                    -1.10184  -3.6074    29.95235 
 6                    -2.36277  -2.94148   30.02583 
 6                     0.95939  -3.65091   28.60729 
 6                    -0.46178  -3.74419   28.68177 
 6                     2.73733  -2.60596   27.26279 
 6                     1.57615  -3.43272   27.33748 
 6                     3.69831  -0.78169   25.91875 
 6                     3.14555  -2.09505   25.9933 
 6                     1.67884   3.44331   40.45836 
 6                     2.77433   2.63054   40.52298 
 6                    -0.44407   3.77327   39.13807 
 6                     0.98368   3.65077   39.2138 
 6                    -2.35216   2.96462   37.7941 
 6                    -1.07831   3.61733   37.87096 
 6                    -3.54697   1.30232   36.442 
 6                    -2.81853   2.51548   36.51659 
 6                    -3.70247  -0.75111   35.09766 
 6                    -3.72588   0.67334   35.17097 
 6                    -2.7494   -2.58083   33.75937 
 6                    -3.51787  -1.37878   33.83223 
 6                    -0.97929  -3.63744   32.41472 
 6                    -2.25924  -3.01598   32.48855 
 6                     1.08444  -3.61666   31.07068 
 6                    -0.33524  -3.75692   31.14507 
 6                     2.82504  -2.51157   29.72666 
 6                     1.69221  -3.37649   29.80157 
 6                     3.72345  -0.65612   28.38152 
 6                     3.2155   -1.98679   28.45597 
 6                    -2.49367   3.02093   40.21861 
 6                    -1.28727   3.66453   40.29353 
 6                    -3.64231   1.19803   38.90768 
 6                    -2.94817   2.45782   38.98131 
 6                    -3.66777  -0.87782   37.57088 
 6                    -3.74542   0.55149   37.6447 
 6                    -2.64855  -2.65584   36.22089 
 6                    -3.4502   -1.48986   36.29402 
 6                    -0.85211  -3.66337   34.87651 
 6                    -2.15522  -3.08474   34.95074 
 6                     1.20725  -3.57475   33.53607 
 6                    -0.20688  -3.76181   33.6106 
 6                     2.90983  -2.4157    32.1885 
 6                     1.80719  -3.31545   32.26333 
 6                     3.74753  -0.52977   30.84505 
 6                     3.28432  -1.87892   30.91915 
 6                    -3.77859  -0.97834   39.99309 
 6                    -3.88041   0.38755   40.06381 
 6                    -2.58966  -2.78208   38.68745 
 6                    -3.452    -1.62639   38.75964 
 6                    -0.71927  -3.68146   37.34939 
 6                    -2.04696  -3.147     37.42466 
 6                     1.32184  -3.51765   35.99516 
 6                    -0.0748   -3.74615   36.07066 
 6                     2.99595  -2.3163    34.65218 
 6                     1.91809  -3.25336   34.72577 
 6                     3.7646   -0.40475   33.30987 
 6                     3.34883  -1.76729   33.38379 
 6                    -0.6698   -3.82198   39.76955 
 6                    -1.95087  -3.33266   39.842 
 6                     1.46925  -3.53102   38.46032 
 6                     0.05133  -3.8097    38.53599 
 6                     3.07498  -2.21192   37.12503 
 6                     2.02611  -3.18657   37.19834 
 6                     3.77344  -0.28298   35.77101 
 6                     3.40187  -1.65088   35.84321 
 6                     3.24001  -2.25298   39.53791 
 6                     2.24932  -3.20454   39.60966 
 6                     3.83534  -0.15584   38.25152 
 6                     3.5229   -1.57942   38.31333 
 1                     3.01335   2.55563   0.10686 
 1                    -1.04593   3.96311  -0.09478 
 1                     1.36743   3.9511    0.03076 
 1                    -3.98072   0.68133  -0.32797 
 1                    -2.94053   2.86016  -0.20011 
 1                    -2.31203  -3.37351  -0.54751 
 1                    -3.84268  -1.50403  -0.42256 
 1                     2.07029  -3.50849  -0.77703 
 1                    -0.2594   -4.15269  -0.64435 
 1                     3.97631   0.48472  -0.99621 
 1                     3.5624   -1.91836  -0.88846 
 1                     3.94513   0.2216    40.3821 
 1                     1.26301   3.84443   41.37734 
 1                     3.21786   2.38677   41.48516 
 1                    -3.04705   2.83231   41.13336 
 1                    -0.91412   3.96938   41.26601 
 1                    -3.82319  -1.55559   40.91141 
 1                    -3.99975   0.85418   41.03646 
 1                    -0.16305  -4.09808   40.68906 
 1                    -2.41781  -3.23482   40.81688 
 1                     3.71229  -1.92348   40.45828 
 1                     1.97009  -3.59355   40.58374 
 
 Symmetry turned off by external request.
 Stoichiometry    C364H22
 Framework group  C1[X(C364H22)]
 Deg. of freedom  1152
 Full point group                 C1      NOp   1
                          Input orientation:                          
 ---------------------------------------------------------------------
 Center     Atomic      Atomic             Coordinates (Angstroms)
 Number     Number       Type             X           Y           Z
 ---------------------------------------------------------------------
      1          6           0        3.744876    0.152708    2.407348
      2          6           0        3.528907   -1.258960    2.470595
      3          6           0        3.205547    2.133206    1.088361
      4          6           0        3.688385    0.818502    1.144474
      5          6           0        3.745729    0.277842    4.868794
      6          6           0        3.581207   -1.133621    4.940585
      7          6           0        3.055420    2.223848    3.514176
      8          6           0        3.633871    0.925353    3.594306
      9          6           0        1.466829    3.571039    2.175675
     10          6           0        2.673587    2.753740    2.237452
     11          6           0       -0.575622    3.873153    0.879324
     12          6           0        0.798008    3.864939    0.951110
     13          6           0        3.752825    0.402589    7.328692
     14          6           0        3.632204   -1.016200    7.402232
     15          6           0        2.988927    2.322671    5.985994
     16          6           0        3.628057    1.046311    6.060293
     17          6           0        1.329725    3.539436    4.645791
     18          6           0        2.540980    2.803134    4.717937
     19          6           0       -0.725251    3.706522    3.290640
     20          6           0        0.706482    3.721411    3.363963
     21          6           0       -2.586339    2.798630    1.952928
     22          6           0       -1.366225    3.572878    2.028624
     23          6           0       -3.709475    1.073814    0.646906
     24          6           0       -3.117687    2.310884    0.719367
     25          6           0        3.742293    0.529464    9.793129
     26          6           0        3.671152   -0.894960    9.866912
     27          6           0        2.909830    2.416564    8.450700
     28          6           0        3.593800    1.167915    8.524456
     29          6           0        1.211157    3.587346    7.105187
     30          6           0        2.450708    2.885272    7.179037
     31          6           0       -0.849636    3.680563    5.763248
     32          6           0        0.577244    3.742683    5.836818
     33          6           0       -2.634139    2.665794    4.418287
     34          6           0       -1.464014    3.461814    4.493825
     35          6           0       -3.651054    0.873003    3.064214
     36          6           0       -3.056712    2.174970    3.139527
     37          6           0       -3.622447   -1.197202    1.729230
     38          6           0       -3.793256    0.234621    1.801436
     39          6           0       -2.546699   -2.952910    0.425143
     40          6           0       -3.413049   -1.892021    0.495809
     41          6           0        3.722756    0.654890   12.257212
     42          6           0        3.700634   -0.769458   12.331405
     43          6           0        2.826344    2.512517   10.912820
     44          6           0        3.554107    1.287553   10.986780
     45          6           0        1.087727    3.623830    9.569791
     46          6           0        2.352510    2.964228    9.643818
     47          6           0       -0.972729    3.648858    8.225726
     48          6           0        0.446428    3.755379    8.300506
     49          6           0       -2.740645    2.585938    6.878406
     50          6           0       -1.586422    3.424101    6.952974
     51          6           0       -3.686786    0.753275    5.538120
     52          6           0       -3.140661    2.070337    5.612415
     53          6           0       -3.527192   -1.294954    4.194825
     54          6           0       -3.748868    0.102549    4.267965
     55          6           0       -2.336037   -2.978938    2.844261
     56          6           0       -3.263539   -1.888645    2.917989
     57          6           0       -0.445475   -3.813016    1.507713
     58          6           0       -1.816153   -3.376958    1.581309
     59          6           0        1.589757   -3.544384    0.195446
     60          6           0        0.271788   -3.908398    0.270372
     61          6           0        3.699373    0.781001   14.720432
     62          6           0        3.725564   -0.643579   14.794822
     63          6           0        2.739415    2.606480   13.376671
     64          6           0        3.509747    1.407103   13.450780
     65          6           0        0.963821    3.654481   12.032929
     66          6           0        2.248493    3.039438   12.107327
     67          6           0       -1.097904    3.613407   10.687483
     68          6           0        0.319159    3.766270   10.762339
     69          6           0       -2.830265    2.493599    9.343965
     70          6           0       -1.704164    3.369414    9.418392
     71          6           0       -3.715252    0.631658    8.000327
     72          6           0       -3.215048    1.963692    8.074234
     73          6           0       -3.500123   -1.422138    6.656574
     74          6           0       -3.770576   -0.021349    6.729461
     75          6           0       -2.238043   -3.053737    5.317971
     76          6           0       -3.201604   -2.004382    5.391186
     77          6           0       -0.311774   -3.765499    3.972440
     78          6           0       -1.675274   -3.386971    4.046989
     79          6           0        1.708892   -3.366422    2.618062
     80          6           0        0.335705   -3.770378    2.694925
     81          6           0        3.226761   -1.970408    1.275127
     82          6           0        2.276059   -3.042602    1.350912
     83          6           0        3.822646    0.002508   -0.034033
     84          6           0        3.587833   -1.341213    0.030557
     85          6           0        3.670924    0.906492   17.184153
     86          6           0        3.745565   -0.516670   17.258606
     87          6           0        2.648950    2.697250   15.840119
     88          6           0        3.459523    1.525528   15.914483
     89          6           0        0.838748    3.684737   14.495574
     90          6           0        2.144115    3.113369   14.570105
     91          6           0       -1.220521    3.573880   13.151504
     92          6           0        0.190793    3.774013   13.226148
     93          6           0       -2.913220    2.396968   11.807259
     94          6           0       -1.818174    3.307634   11.881743
     95          6           0       -3.739397    0.506161   10.463084
     96          6           0       -3.283265    1.857218   10.536631
     97          6           0       -3.452228   -1.537817    9.122376
     98          6           0       -3.771400   -0.148168    9.195301
     99          6           0       -2.136092   -3.125634    7.779824
    100          6           0       -3.135001   -2.112414    7.852938
    101          6           0       -0.181461   -3.787926    6.435467
    102          6           0       -1.567877   -3.451911    6.509505
    103          6           0        1.821755   -3.311816    5.092830
    104          6           0        0.470579   -3.757897    5.168456
    105          6           0        3.261721   -1.850070    3.745070
    106          6           0        2.354331   -2.935975    3.819428
    107          6           0        3.637541    1.030770   19.647739
    108          6           0        3.760505   -0.388879   19.722229
    109          6           0        2.555498    2.785891   18.303323
    110          6           0        3.405499    1.642284   18.377825
    111          6           0        0.712902    3.711449   16.959015
    112          6           0        2.037029    3.184536   17.033577
    113          6           0       -1.341101    3.530763   15.614838
    114          6           0        0.062030    3.777719   15.689385
    115          6           0       -2.994983    2.298422   14.270521
    116          6           0       -1.930022    3.245518   14.344784
    117          6           0       -3.756110    0.380877   12.927807
    118          6           0       -3.346381    1.746189   13.001303
    119          6           0       -3.398119   -1.650712   11.585380
    120          6           0       -3.764689   -0.274475   11.658391
    121          6           0       -2.028804   -3.195100   10.242767
    122          6           0       -3.064591   -2.215028   10.315861
    123          6           0       -0.053169   -3.787348    8.900745
    124          6           0       -1.448861   -3.499442    8.974881
    125          6           0        1.935460   -3.249084    7.554660
    126          6           0        0.599645   -3.739479    7.629961
    127          6           0        3.343799   -1.742902    6.209128
    128          6           0        2.464334   -2.865968    6.283574
    129          6           0        3.599953    1.153893   22.111170
    130          6           0        3.771113   -0.260699   22.185635
    131          6           0        2.459186    2.871499   20.766752
    132          6           0        3.347440    1.757269   20.841275
    133          6           0        0.586422    3.734225   19.422430
    134          6           0        1.927359    3.252196   19.497011
    135          6           0       -1.460606    3.484548   18.078110
    136          6           0       -0.066296    3.778529   18.152544
    137          6           0       -3.072028    2.197001   16.734489
    138          6           0       -2.039600    3.179410   16.808571
    139          6           0       -3.767609    0.255098   15.391446
    140          6           0       -3.404545    1.632807   15.464974
    141          6           0       -3.341479   -1.763869   14.048760
    142          6           0       -3.755564   -0.399930   14.121829
    143          6           0       -1.919219   -3.258492   12.706921
    144          6           0       -2.987598   -2.315357   12.780220
    145          6           0        0.075079   -3.782546   11.363237
    146          6           0       -1.328633   -3.542006   11.437351
    147          6           0        2.047342   -3.180458   10.018337
    148          6           0        0.725607   -3.715211   10.093263
    149          6           0        3.405603   -1.630493    8.674043
    150          6           0        2.562529   -2.778375    8.748956
    151          6           0        3.558497    1.275560   24.574428
    152          6           0        3.777604   -0.132246   24.648773
    153          6           0        2.360185    2.953880   23.230365
    154          6           0        3.285670    1.870157   23.304811
    155          6           0        0.459321    3.752847   21.885896
    156          6           0        1.815700    3.316283   21.960473
    157          6           0       -1.578201    3.434345   20.541652
    158          6           0       -0.194571    3.775242   20.616040
    159          6           0       -3.144961    2.092871   19.198119
    160          6           0       -2.146543    3.109519   19.272130
    161          6           0       -3.774850    0.128462   17.855035
    162          6           0       -3.458669    1.518025   17.928535
    163          6           0       -3.280140   -1.874450   16.512643
    164          6           0       -3.740512   -0.525682   16.585876
    165          6           0       -1.807890   -3.319325   15.169928
    166          6           0       -2.907393   -2.413280   15.243376
    167          6           0        0.203643   -3.776431   13.826481
    168          6           0       -1.208510   -3.583148   13.900508
    169          6           0        2.153916   -3.107701   12.482473
    170          6           0        0.851525   -3.685170   12.557298
    171          6           0        3.462013   -1.514564   11.136892
    172          6           0        2.656519   -2.689330   11.211768
    173          6           0        3.513608    1.395993   27.038044
    174          6           0        3.780838   -0.004154   27.112153
    175          6           0        2.258285    3.032013   25.694128
    176          6           0        3.219879    1.980621   25.768459
    177          6           0        0.331696    3.766847   24.349382
    178          6           0        1.701992    3.376327   24.423960
    179          6           0       -1.693997    3.380026   23.005262
    180          6           0       -0.322560    3.767466   23.079702
    181          6           0       -3.214340    1.986288   21.661573
    182          6           0       -2.250961    3.036171   21.735579
    183          6           0       -3.777296    0.001634   20.318719
    184          6           0       -3.508400    1.401107   20.392201
    185          6           0       -3.214963   -1.983178   18.976132
    186          6           0       -3.720599   -0.650944   19.049479
    187          6           0       -1.694723   -3.377641   17.633222
    188          6           0       -2.824592   -2.509104   17.706733
    189          6           0        0.331037   -3.765846   16.290045
    190          6           0       -1.086483   -3.620316   16.364086
    191          6           0        2.258209   -3.032300   14.945638
    192          6           0        0.975751   -3.652788   15.020272
    193          6           0        3.513604   -1.396286   13.601050
    194          6           0        2.747427   -2.598220   13.675684
    195          6           0        3.463962    1.513351   29.502021
    196          6           0        3.779693    0.123965   29.575983
    197          6           0        2.153611    3.105873   28.157526
    198          6           0        3.150363    2.088200   28.231636
    199          6           0        0.203245    3.776175   26.813337
    200          6           0        1.586415    3.431972   26.887941
    201          6           0       -1.807686    3.321354   25.468724
    202          6           0       -0.450425    3.754559   25.543345
    203          6           0       -3.280490    1.877544   24.124860
    204          6           0       -2.352940    2.959318   24.198899
    205          6           0       -3.775591   -0.125226   22.782304
    206          6           0       -3.554222    1.282591   22.855752
    207          6           0       -3.146220   -2.089861   21.439616
    208          6           0       -3.696607   -0.775506   21.512963
    209          6           0       -1.579726   -3.432092   20.096805
    210          6           0       -2.738311   -2.602323   20.170352
    211          6           0        0.457946   -3.751505   18.753325
    212          6           0       -0.963621   -3.653923   18.827379
    213          6           0        2.359780   -2.953653   17.409207
    214          6           0        1.098557   -3.617150   17.483661
    215          6           0        3.558993   -1.276185   16.065014
    216          6           0        2.833947   -2.502783   16.139584
    217          6           0        3.410794    1.627591   31.964389
    218          6           0        3.774718    0.251188   32.038142
    219          6           0        2.045986    3.176419   30.622009
    220          6           0        3.078612    2.192717   30.695721
    221          6           0        0.074657    3.779276   29.277278
    222          6           0        1.467654    3.481904   29.352091
    223          6           0       -1.920128    3.259192   27.931752
    224          6           0       -0.577955    3.737080   28.006569
    225          6           0       -3.343658    1.766716   26.588443
    226          6           0       -2.452695    2.879260   26.662508
    227          6           0       -3.769654   -0.251585   25.245614
    228          6           0       -3.596310    1.162535   25.319025
    229          6           0       -3.074009   -2.194123   23.903182
    230          6           0       -3.668835   -0.899068   23.976417
    231          6           0       -1.462854   -3.482523   22.560494
    232          6           0       -2.648901   -2.692469   22.634041
    233          6           0        0.584354   -3.733121   21.216750
    234          6           0       -0.839738   -3.683560   21.290842
    235          6           0        2.458132   -2.871515   19.872801
    236          6           0        1.220041   -3.577090   19.947201
    237          6           0        3.600090   -1.154413   18.528471
    238          6           0        2.916800   -2.404793   18.603008
    239          6           0        3.352120    1.739506   34.428618
    240          6           0        3.767699    0.373859   34.502910
    241          6           0        1.934496    3.237601   33.086684
    242          6           0        2.999165    2.292082   33.160188
    243          6           0       -0.054687    3.778928   31.740084
    244          6           0        1.347065    3.526934   31.814917
    245          6           0       -2.032071    3.194029   30.395816
    246          6           0       -0.705238    3.716021   30.470738
    247          6           0       -3.402597    1.654161   29.051621
    248          6           0       -2.550236    2.795104   29.125796
    249          6           0       -3.760427   -0.377748   27.708719
    250          6           0       -3.635456    1.041864   27.782024
    251          6           0       -2.998145   -2.295476   26.367161
    252          6           0       -3.637151   -1.021361   26.440232
    253          6           0       -1.344280   -3.528317   25.024056
    254          6           0       -2.556113   -2.779056   25.097595
    255          6           0        0.710301   -3.710536   23.680323
    256          6           0       -0.714865   -3.708773   23.754489
    257          6           0        2.553719   -2.786072   22.336276
    258          6           0        1.340136   -3.532959   22.410721
    259          6           0        3.636833   -1.031277   20.991899
    260          6           0        2.996263   -2.304103   21.066431
    261          6           0        3.273095    1.831337   36.894650
    262          6           0        3.747708    0.491343   36.974772
    263          6           0        1.816877    3.287872   35.548333
    264          6           0        2.908216    2.377750   35.620116
    265          6           0       -0.186054    3.774801   34.205443
    266          6           0        1.225007    3.565926   34.279811
    267          6           0       -2.139904    3.124514   32.859116
    268          6           0       -0.833474    3.688461   32.934417
    269          6           0       -3.460456    1.540315   31.514115
    270          6           0       -2.646529    2.710095   31.588317
    271          6           0       -3.747381   -0.503574   30.173026
    272          6           0       -3.671501    0.920396   30.246176
    273          6           0       -2.918526   -2.392752   28.830519
    274          6           0       -3.600447   -1.142394   28.903526
    275          6           0       -1.223936   -3.570404   27.487706
    276          6           0       -2.461007   -2.862156   27.561172
    277          6           0        0.835494   -3.683155   26.144173
    278          6           0       -0.588941   -3.729133   26.218481
    279          6           0        2.646452   -2.697431   24.799480
    280          6           0        1.458892   -3.484538   24.874046
    281          6           0        3.669610   -0.906930   23.455302
    282          6           0        3.072511   -2.200911   23.529838
    283          6           0        3.238812    1.946282   39.344505
    284          6           0        3.793812    0.660405   39.400629
    285          6           0        1.692725    3.342939   38.018331
    286          6           0        2.821414    2.467982   38.081595
    287          6           0       -0.313907    3.749752   36.669570
    288          6           0        1.091835    3.587317   36.743862
    289          6           0       -2.245896    3.048625   35.320591
    290          6           0       -0.958958    3.655516   35.396221
    291          6           0       -3.513907    1.423603   33.979500
    292          6           0       -2.739763    2.621849   34.053596
    293          6           0       -3.728171   -0.626667   32.635913
    294          6           0       -3.701513    0.795940   32.709117
    295          6           0       -2.836854   -2.489180   31.293541
    296          6           0       -3.562302   -1.261658   31.366453
    297          6           0       -1.101842   -3.607395   29.952348
    298          6           0       -2.362767   -2.941478   30.025831
    299          6           0        0.959394   -3.650908   28.607291
    300          6           0       -0.461776   -3.744185   28.681766
    301          6           0        2.737329   -2.605963   27.262793
    302          6           0        1.576149   -3.432719   27.337480
    303          6           0        3.698308   -0.781686   25.918749
    304          6           0        3.145551   -2.095046   25.993299
    305          6           0        1.678836    3.443314   40.458356
    306          6           0        2.774333    2.630539   40.522983
    307          6           0       -0.444069    3.773271   39.138071
    308          6           0        0.983675    3.650768   39.213796
    309          6           0       -2.352162    2.964624   37.794097
    310          6           0       -1.078305    3.617330   37.870956
    311          6           0       -3.546966    1.302318   36.441998
    312          6           0       -2.818530    2.515480   36.516593
    313          6           0       -3.702470   -0.751112   35.097662
    314          6           0       -3.725876    0.673343   35.170970
    315          6           0       -2.749404   -2.580829   33.759368
    316          6           0       -3.517866   -1.378776   33.832233
    317          6           0       -0.979292   -3.637438   32.414718
    318          6           0       -2.259240   -3.015979   32.488549
    319          6           0        1.084444   -3.616664   31.070679
    320          6           0       -0.335244   -3.756921   31.145067
    321          6           0        2.825037   -2.511566   29.726656
    322          6           0        1.692206   -3.376488   29.801572
    323          6           0        3.723452   -0.656117   28.381518
    324          6           0        3.215502   -1.986790   28.455975
    325          6           0       -2.493672    3.020930   40.218613
    326          6           0       -1.287272    3.664532   40.293529
    327          6           0       -3.642311    1.198027   38.907684
    328          6           0       -2.948169    2.457818   38.981306
    329          6           0       -3.667772   -0.877820   37.570885
    330          6           0       -3.745417    0.551485   37.644697
    331          6           0       -2.648550   -2.655842   36.220893
    332          6           0       -3.450203   -1.489855   36.294016
    333          6           0       -0.852111   -3.663374   34.876515
    334          6           0       -2.155219   -3.084735   34.950741
    335          6           0        1.207250   -3.574751   33.536068
    336          6           0       -0.206883   -3.761805   33.610595
    337          6           0        2.909825   -2.415702   32.188502
    338          6           0        1.807187   -3.315446   32.263331
    339          6           0        3.747532   -0.529767   30.845046
    340          6           0        3.284321   -1.878923   30.919147
    341          6           0       -3.778586   -0.978344   39.993085
    342          6           0       -3.880410    0.387553   40.063808
    343          6           0       -2.589663   -2.782078   38.687448
    344          6           0       -3.451999   -1.626394   38.759640
    345          6           0       -0.719269   -3.681461   37.349394
    346          6           0       -2.046958   -3.147002   37.424664
    347          6           0        1.321839   -3.517646   35.995161
    348          6           0       -0.074803   -3.746145   36.070664
    349          6           0        2.995951   -2.316298   34.652181
    350          6           0        1.918093   -3.253356   34.725769
    351          6           0        3.764601   -0.404748   33.309872
    352          6           0        3.348825   -1.767290   33.383785
    353          6           0       -0.669802   -3.821980   39.769553
    354          6           0       -1.950866   -3.332664   39.842001
    355          6           0        1.469250   -3.531024   38.460324
    356          6           0        0.051331   -3.809700   38.535986
    357          6           0        3.074977   -2.211924   37.125032
    358          6           0        2.026109   -3.186573   37.198341
    359          6           0        3.773440   -0.282976   35.771015
    360          6           0        3.401870   -1.650884   35.843207
    361          6           0        3.240007   -2.252982   39.537909
    362          6           0        2.249318   -3.204536   39.609656
    363          6           0        3.835335   -0.155837   38.251523
    364          6           0        3.522904   -1.579423   38.313332
    365          1           0        3.013354    2.555633    0.106863
    366          1           0       -1.045926    3.963113   -0.094775
    367          1           0        1.367431    3.951104    0.030763
    368          1           0       -3.980721    0.681326   -0.327966
    369          1           0       -2.940534    2.860155   -0.200109
    370          1           0       -2.312027   -3.373513   -0.547506
    371          1           0       -3.842677   -1.504029   -0.422558
    372          1           0        2.070289   -3.508490   -0.777028
    373          1           0       -0.259400   -4.152691   -0.644348
    374          1           0        3.976311    0.484718   -0.996213
    375          1           0        3.562397   -1.918356   -0.888458
    376          1           0        3.945125    0.221601   40.382097
    377          1           0        1.263013    3.844425   41.377342
    378          1           0        3.217859    2.386767   41.485164
    379          1           0       -3.047049    2.832313   41.133360
    380          1           0       -0.914121    3.969381   41.266013
    381          1           0       -3.823185   -1.555585   40.911413
    382          1           0       -3.999751    0.854177   41.036456
    383          1           0       -0.163046   -4.098083   40.689055
    384          1           0       -2.417808   -3.234822   40.816881
    385          1           0        3.712294   -1.923480   40.458276
    386          1           0        1.970087   -3.593551   40.583736
 ---------------------------------------------------------------------
 Rotational constants (GHZ):           0.0080272           0.0007830           0.0007830
 Standard basis: 6-311G(d) (5D, 7F)
  6618 basis functions, 11758 primitive gaussians,  6982 cartesian basis functions
  1103 alpha electrons     1103 beta electrons
       nuclear repulsion energy    129109.2902733161 Hartrees.
 NAtoms=  386 NActive=  386 NUniq=  386 SFac= 1.00D+00 NAtFMM=   60 NAOKFM=T Big=T
 Integral buffers will be    131072 words long.
 Raffenetti 2 integral format.
 Two-electron integral symmetry is turned off.
 One-electron integrals computed using PRISM.
 NBasis=  6618 RedAO= T EigKep=  7.42D-06  NBF=  6618
 NBsUse=  6618 1.00D-06 EigRej= -1.00D+00 NBFU=  6618
 ExpMin= 1.03D-01 ExpMax= 4.56D+03 ExpMxC= 6.82D+02 IAcc=3 IRadAn=         5 AccDes= 0.00D+00
 Harris functional with IExCor=  402 and IRadAn=       5 diagonalized for initial guess.
 HarFok:  IExCor=  402 AccDes= 0.00D+00 IRadAn=         5 IDoV= 1 UseB2=F ITyADJ=14
 ICtDFT=  3500011 ScaDFX=  1.000000  1.000000  1.000000  1.000000
 FoFCou: FMM=F IPFlag=           0 FMFlag=      100000 FMFlg1=        2001
         NFxFlg=           0 DoJE=T BraDBF=F KetDBF=T FulRan=T
         wScrn=  0.000000 ICntrl=       500 IOpCl=  0 I1Cent=   200000004 NGrid=           0
         NMat0=    1 NMatS0=      1 NMatT0=    0 NMatD0=    1 NMtDS0=    0 NMtDT0=    0
 Symmetry not used in FoFCou.
 Requested convergence on RMS density matrix=1.00D-08 within 128 cycles.
 Requested convergence on MAX density matrix=1.00D-06.
 Requested convergence on             energy=1.00D-06.
 No special actions if energy rises.
 Integral accuracy reduced to 1.0D-05 until final iterations.
 Problem detected with inexpensive integrals.
 Switching to full accuracy and repeating last cycle.
 SCF Done:  E(RB3LYP) =  -13888.2952252     A.U. after   14 cycles
            NFock= 14  Conv=0.85D-08     -V/T= 2.0042
 Hyperfine terms turned off by default for NAtoms > 100.

 **********************************************************************

            Population analysis using the SCF Density.

 **********************************************************************

 Alpha  occ. eigenvalues --  -10.21582 -10.21581 -10.21580 -10.21576 -10.21576
 Alpha  occ. eigenvalues --  -10.21573 -10.21572 -10.21572 -10.21569 -10.21568
 Alpha  occ. eigenvalues --  -10.21568 -10.21567 -10.21564 -10.21563 -10.21563
 Alpha  occ. eigenvalues --  -10.21560 -10.21559 -10.21559 -10.21559 -10.21559
 Alpha  occ. eigenvalues --  -10.21558 -10.21555 -10.21554 -10.21554 -10.21553
 Alpha  occ. eigenvalues --  -10.21552 -10.21551 -10.21551 -10.21550 -10.21550
 Alpha  occ. eigenvalues --  -10.21549 -10.21549 -10.21547 -10.21546 -10.21546
 Alpha  occ. eigenvalues --  -10.21546 -10.21544 -10.21543 -10.21541 -10.21541
 Alpha  occ. eigenvalues --  -10.21540 -10.21540 -10.21539 -10.21538 -10.21538
 Alpha  occ. eigenvalues --  -10.21538 -10.21537 -10.21535 -10.21532 -10.21532
 Alpha  occ. eigenvalues --  -10.21530 -10.21530 -10.21528 -10.21528 -10.21527
 Alpha  occ. eigenvalues --  -10.21526 -10.21526 -10.21526 -10.21523 -10.21522
 Alpha  occ. eigenvalues --  -10.21520 -10.21518 -10.21516 -10.21515 -10.21515
 Alpha  occ. eigenvalues --  -10.21514 -10.21514 -10.21512 -10.21511 -10.21511
 Alpha  occ. eigenvalues --  -10.21510 -10.21510 -10.21508 -10.21508 -10.21506
 Alpha  occ. eigenvalues --  -10.21506 -10.21505 -10.21505 -10.21504 -10.21503
 Alpha  occ. eigenvalues --  -10.21503 -10.21503 -10.21500 -10.21500 -10.21499
 Alpha  occ. eigenvalues --  -10.21498 -10.21498 -10.21497 -10.21497 -10.21496
 Alpha  occ. eigenvalues --  -10.21495 -10.21494 -10.21494 -10.21493 -10.21493
 Alpha  occ. eigenvalues --  -10.21492 -10.21492 -10.21491 -10.21490 -10.21490
 Alpha  occ. eigenvalues --  -10.21490 -10.21489 -10.21489 -10.21489 -10.21488
 Alpha  occ. eigenvalues --  -10.21488 -10.21486 -10.21486 -10.21484 -10.21484
 Alpha  occ. eigenvalues --  -10.21482 -10.21481 -10.21481 -10.21481 -10.21480
 Alpha  occ. eigenvalues --  -10.21479 -10.21479 -10.21476 -10.21476 -10.21476
 Alpha  occ. eigenvalues --  -10.21475 -10.21474 -10.21473 -10.21473 -10.21473
 Alpha  occ. eigenvalues --  -10.21472 -10.21471 -10.21471 -10.21471 -10.21470
 Alpha  occ. eigenvalues --  -10.21470 -10.21469 -10.21469 -10.21468 -10.21467
 Alpha  occ. eigenvalues --  -10.21467 -10.21467 -10.21467 -10.21465 -10.21465
 Alpha  occ. eigenvalues --  -10.21465 -10.21463 -10.21463 -10.21462 -10.21459
 Alpha  occ. eigenvalues --  -10.21458 -10.21456 -10.21456 -10.21455 -10.21455
 Alpha  occ. eigenvalues --  -10.21453 -10.21453 -10.21453 -10.21452 -10.21450
 Alpha  occ. eigenvalues --  -10.21450 -10.21449 -10.21449 -10.21447 -10.21446
 Alpha  occ. eigenvalues --  -10.21445 -10.21445 -10.21444 -10.21444 -10.21443
 Alpha  occ. eigenvalues --  -10.21443 -10.21440 -10.21440 -10.21438 -10.21438
 Alpha  occ. eigenvalues --  -10.21436 -10.21436 -10.21435 -10.21435 -10.21432
 Alpha  occ. eigenvalues --  -10.21432 -10.21429 -10.21429 -10.21425 -10.21425
 Alpha  occ. eigenvalues --  -10.21422 -10.21422 -10.21420 -10.21420 -10.21418
 Alpha  occ. eigenvalues --  -10.21418 -10.21417 -10.21417 -10.21416 -10.21416
 Alpha  occ. eigenvalues --  -10.21413 -10.21413 -10.21410 -10.21410 -10.21409
 Alpha  occ. eigenvalues --  -10.21408 -10.21407 -10.21406 -10.21405 -10.21405
 Alpha  occ. eigenvalues --  -10.21399 -10.21399 -10.21394 -10.21394 -10.21391
 Alpha  occ. eigenvalues --  -10.21391 -10.21389 -10.21389 -10.21385 -10.21385
 Alpha  occ. eigenvalues --  -10.21384 -10.21384 -10.21380 -10.21380 -10.21376
 Alpha  occ. eigenvalues --  -10.21376 -10.21371 -10.21371 -10.21371 -10.21371
 Alpha  occ. eigenvalues --  -10.21365 -10.21365 -10.21363 -10.21363 -10.21353
 Alpha  occ. eigenvalues --  -10.21352 -10.21351 -10.21351 -10.21346 -10.21346
 Alpha  occ. eigenvalues --  -10.21343 -10.21343 -10.21339 -10.21339 -10.21334
 Alpha  occ. eigenvalues --  -10.21333 -10.21325 -10.21325 -10.21321 -10.21321
 Alpha  occ. eigenvalues --  -10.21318 -10.21318 -10.21314 -10.21313 -10.21306
 Alpha  occ. eigenvalues --  -10.21306 -10.21294 -10.21294 -10.21291 -10.21291
 Alpha  occ. eigenvalues --  -10.21289 -10.21288 -10.21287 -10.21286 -10.21282
 Alpha  occ. eigenvalues --  -10.21281 -10.21260 -10.21259 -10.21248 -10.21248
 Alpha  occ. eigenvalues --  -10.21248 -10.21247 -10.21245 -10.21244 -10.21243
 Alpha  occ. eigenvalues --  -10.21243 -10.21237 -10.21237 -10.21233 -10.21233
 Alpha  occ. eigenvalues --  -10.21208 -10.21207 -10.21207 -10.21206 -10.21206
 Alpha  occ. eigenvalues --  -10.21205 -10.21197 -10.21197 -10.21186 -10.21186
 Alpha  occ. eigenvalues --  -10.21185 -10.21184 -10.21179 -10.21179 -10.21173
 Alpha  occ. eigenvalues --  -10.21172 -10.21166 -10.21165 -10.21161 -10.21161
 Alpha  occ. eigenvalues --  -10.21148 -10.21148 -10.21133 -10.21133 -10.21131
 Alpha  occ. eigenvalues --  -10.21130 -10.21125 -10.21124 -10.21124 -10.21124
 Alpha  occ. eigenvalues --  -10.21122 -10.21122 -10.21120 -10.21119 -10.21116
 Alpha  occ. eigenvalues --  -10.21116 -10.21112 -10.21111 -10.21109 -10.21109
 Alpha  occ. eigenvalues --  -10.21086 -10.21085 -10.21085 -10.21085 -10.21077
 Alpha  occ. eigenvalues --  -10.21077 -10.21070 -10.21070 -10.21069 -10.21068
 Alpha  occ. eigenvalues --  -10.21068 -10.21068 -10.21049 -10.21048 -10.21042
 Alpha  occ. eigenvalues --  -10.21042 -10.21038 -10.21038 -10.21028 -10.21028
 Alpha  occ. eigenvalues --  -10.21014 -10.21013 -10.21004 -10.21004 -10.21003
 Alpha  occ. eigenvalues --  -10.21002 -10.20966 -10.20965 -10.20850 -10.20850
 Alpha  occ. eigenvalues --  -10.20796 -10.20795 -10.20029 -10.20028 -10.19971
 Alpha  occ. eigenvalues --  -10.19970 -10.19944 -10.19944 -10.19943 -10.19942
 Alpha  occ. eigenvalues --  -10.19933 -10.19933 -10.19922 -10.19922 -10.19897
 Alpha  occ. eigenvalues --  -10.19897 -10.19873 -10.19873 -10.19872 -10.19871
 Alpha  occ. eigenvalues --  -10.19865 -10.19865 -10.19847 -10.19847  -0.96093
 Alpha  occ. eigenvalues --   -0.95835  -0.95493  -0.95263  -0.95263  -0.95044
 Alpha  occ. eigenvalues --   -0.95006  -0.95005  -0.94664  -0.94662  -0.94481
 Alpha  occ. eigenvalues --   -0.94216  -0.94209  -0.93809  -0.93652  -0.93630
 Alpha  occ. eigenvalues --   -0.93055  -0.92973  -0.92904  -0.92808  -0.92808
 Alpha  occ. eigenvalues --   -0.92553  -0.92552  -0.92235  -0.92215  -0.92211
 Alpha  occ. eigenvalues --   -0.92185  -0.92024  -0.91772  -0.91763  -0.91325
 Alpha  occ. eigenvalues --   -0.91320  -0.91216  -0.91168  -0.91021  -0.90553
 Alpha  occ. eigenvalues --   -0.90553  -0.90309  -0.90253  -0.89917  -0.89775
 Alpha  occ. eigenvalues --   -0.89741  -0.89192  -0.89155  -0.88898  -0.88885
 Alpha  occ. eigenvalues --   -0.88833  -0.88832  -0.88638  -0.88581  -0.88578
 Alpha  occ. eigenvalues --   -0.88250  -0.88244  -0.87983  -0.87960  -0.87904
 Alpha  occ. eigenvalues --   -0.87874  -0.87817  -0.87766  -0.87331  -0.87286
 Alpha  occ. eigenvalues --   -0.87235  -0.86807  -0.86766  -0.86639  -0.86614
 Alpha  occ. eigenvalues --   -0.86599  -0.86597  -0.85876  -0.85833  -0.85819
 Alpha  occ. eigenvalues --   -0.85626  -0.85513  -0.85205  -0.85177  -0.85001
 Alpha  occ. eigenvalues --   -0.84877  -0.84448  -0.84240  -0.84171  -0.84018
 Alpha  occ. eigenvalues --   -0.83863  -0.83653  -0.83653  -0.83508  -0.83506
 Alpha  occ. eigenvalues --   -0.83264  -0.83262  -0.83201  -0.82941  -0.82930
 Alpha  occ. eigenvalues --   -0.82924  -0.82758  -0.82664  -0.82560  -0.82486
 Alpha  occ. eigenvalues --   -0.82476  -0.82105  -0.82046  -0.81993  -0.81988
 Alpha  occ. eigenvalues --   -0.81909  -0.81740  -0.81344  -0.81343  -0.81171
 Alpha  occ. eigenvalues --   -0.81122  -0.80953  -0.80696  -0.80674  -0.80470
 Alpha  occ. eigenvalues --   -0.80438  -0.80365  -0.80322  -0.79883  -0.79823
 Alpha  occ. eigenvalues --   -0.79610  -0.79475  -0.79146  -0.79143  -0.79081
 Alpha  occ. eigenvalues --   -0.78903  -0.78826  -0.78721  -0.78593  -0.78072
 Alpha  occ. eigenvalues --   -0.77960  -0.77833  -0.77814  -0.77728  -0.77608
 Alpha  occ. eigenvalues --   -0.77370  -0.77292  -0.77292  -0.77066  -0.77054
 Alpha  occ. eigenvalues --   -0.77037  -0.76871  -0.76734  -0.76729  -0.76686
 Alpha  occ. eigenvalues --   -0.76676  -0.76575  -0.76483  -0.76436  -0.76339
 Alpha  occ. eigenvalues --   -0.76333  -0.76142  -0.75850  -0.75846  -0.75769
 Alpha  occ. eigenvalues --   -0.75639  -0.75546  -0.75536  -0.75475  -0.75473
 Alpha  occ. eigenvalues --   -0.75348  -0.75296  -0.75148  -0.74957  -0.74716
 Alpha  occ. eigenvalues --   -0.74635  -0.74617  -0.74581  -0.74579  -0.74407
 Alpha  occ. eigenvalues --   -0.73881  -0.73821  -0.73820  -0.73770  -0.73464
 Alpha  occ. eigenvalues --   -0.73288  -0.72902  -0.72899  -0.72172  -0.72121
 Alpha  occ. eigenvalues --   -0.71817  -0.71810  -0.71338  -0.71126  -0.70510
 Alpha  occ. eigenvalues --   -0.70436  -0.70215  -0.70071  -0.70068  -0.69427
 Alpha  occ. eigenvalues --   -0.69399  -0.68903  -0.68689  -0.68677  -0.68648
 Alpha  occ. eigenvalues --   -0.68643  -0.68136  -0.68115  -0.68108  -0.68103
 Alpha  occ. eigenvalues --   -0.67902  -0.67890  -0.67782  -0.67672  -0.67623
 Alpha  occ. eigenvalues --   -0.67615  -0.67469  -0.67428  -0.67385  -0.67300
 Alpha  occ. eigenvalues --   -0.67280  -0.67244  -0.67177  -0.67095  -0.66932
 Alpha  occ. eigenvalues --   -0.66913  -0.66886  -0.66843  -0.66723  -0.66549
 Alpha  occ. eigenvalues --   -0.66509  -0.66481  -0.66461  -0.66377  -0.66314
 Alpha  occ. eigenvalues --   -0.66212  -0.66032  -0.65981  -0.65923  -0.65832
 Alpha  occ. eigenvalues --   -0.65634  -0.65357  -0.65302  -0.65282  -0.65033
 Alpha  occ. eigenvalues --   -0.65019  -0.65001  -0.64949  -0.64853  -0.64726
 Alpha  occ. eigenvalues --   -0.64661  -0.64385  -0.64037  -0.63905  -0.63393
 Alpha  occ. eigenvalues --   -0.63392  -0.63155  -0.62898  -0.62864  -0.62776
 Alpha  occ. eigenvalues --   -0.62636  -0.62258  -0.62177  -0.61772  -0.61598
 Alpha  occ. eigenvalues --   -0.61179  -0.60951  -0.60923  -0.60794  -0.60768
 Alpha  occ. eigenvalues --   -0.60636  -0.60572  -0.60140  -0.60139  -0.60085
 Alpha  occ. eigenvalues --   -0.59981  -0.59981  -0.59888  -0.59866  -0.59812
 Alpha  occ. eigenvalues --   -0.59782  -0.59779  -0.59549  -0.59531  -0.59236
 Alpha  occ. eigenvalues --   -0.59219  -0.59109  -0.59069  -0.59031  -0.58866
 Alpha  occ. eigenvalues --   -0.58849  -0.58683  -0.58644  -0.58587  -0.58485
 Alpha  occ. eigenvalues --   -0.58484  -0.58435  -0.58318  -0.58240  -0.58114
 Alpha  occ. eigenvalues --   -0.57971  -0.57843  -0.57827  -0.57312  -0.57224
 Alpha  occ. eigenvalues --   -0.57036  -0.56938  -0.56884  -0.56769  -0.56624
 Alpha  occ. eigenvalues --   -0.56553  -0.56517  -0.56337  -0.56135  -0.55947
 Alpha  occ. eigenvalues --   -0.55807  -0.55745  -0.55609  -0.55045  -0.54923
 Alpha  occ. eigenvalues --   -0.54717  -0.54706  -0.54527  -0.54480  -0.54457
 Alpha  occ. eigenvalues --   -0.54296  -0.54272  -0.54262  -0.54161  -0.54113
 Alpha  occ. eigenvalues --   -0.53956  -0.53617  -0.53584  -0.53300  -0.53275
 Alpha  occ. eigenvalues --   -0.53147  -0.53076  -0.52984  -0.52850  -0.52740
 Alpha  occ. eigenvalues --   -0.52635  -0.52590  -0.52504  -0.52468  -0.52415
 Alpha  occ. eigenvalues --   -0.52388  -0.52209  -0.52082  -0.51966  -0.51954
 Alpha  occ. eigenvalues --   -0.51851  -0.51834  -0.51751  -0.51726  -0.51675
 Alpha  occ. eigenvalues --   -0.51621  -0.51578  -0.51505  -0.51440  -0.51385
 Alpha  occ. eigenvalues --   -0.51266  -0.51198  -0.51117  -0.51057  -0.50987
 Alpha  occ. eigenvalues --   -0.50960  -0.50880  -0.50869  -0.50847  -0.50737
 Alpha  occ. eigenvalues --   -0.50597  -0.50501  -0.50488  -0.50313  -0.50258
 Alpha  occ. eigenvalues --   -0.50031  -0.50001  -0.49875  -0.49858  -0.49761
 Alpha  occ. eigenvalues --   -0.49623  -0.49221  -0.49215  -0.49123  -0.48965
 Alpha  occ. eigenvalues --   -0.48835  -0.48719  -0.48648  -0.48619  -0.48498
 Alpha  occ. eigenvalues --   -0.48429  -0.48428  -0.48290  -0.48175  -0.48042
 Alpha  occ. eigenvalues --   -0.48030  -0.48028  -0.47906  -0.47904  -0.47769
 Alpha  occ. eigenvalues --   -0.47768  -0.47715  -0.47638  -0.47555  -0.47544
 Alpha  occ. eigenvalues --   -0.47521  -0.47504  -0.47486  -0.47485  -0.47439
 Alpha  occ. eigenvalues --   -0.47350  -0.47236  -0.47113  -0.47112  -0.47099
 Alpha  occ. eigenvalues --   -0.47060  -0.46976  -0.46957  -0.46931  -0.46885
 Alpha  occ. eigenvalues --   -0.46784  -0.46754  -0.46661  -0.46613  -0.46609
 Alpha  occ. eigenvalues --   -0.46570  -0.46419  -0.46406  -0.46347  -0.46336
 Alpha  occ. eigenvalues --   -0.46286  -0.46244  -0.46151  -0.46104  -0.46018
 Alpha  occ. eigenvalues --   -0.46006  -0.45988  -0.45936  -0.45891  -0.45891
 Alpha  occ. eigenvalues --   -0.45868  -0.45868  -0.45859  -0.45854  -0.45739
 Alpha  occ. eigenvalues --   -0.45723  -0.45723  -0.45659  -0.45641  -0.45580
 Alpha  occ. eigenvalues --   -0.45575  -0.45468  -0.45428  -0.45407  -0.45396
 Alpha  occ. eigenvalues --   -0.45373  -0.45328  -0.45325  -0.45284  -0.45245
 Alpha  occ. eigenvalues --   -0.45245  -0.45195  -0.45172  -0.45169  -0.45158
 Alpha  occ. eigenvalues --   -0.45124  -0.44991  -0.44938  -0.44870  -0.44812
 Alpha  occ. eigenvalues --   -0.44788  -0.44750  -0.44697  -0.44668  -0.44609
 Alpha  occ. eigenvalues --   -0.44523  -0.44506  -0.44480  -0.44369  -0.44334
 Alpha  occ. eigenvalues --   -0.44324  -0.44222  -0.44212  -0.44145  -0.44127
 Alpha  occ. eigenvalues --   -0.44080  -0.44062  -0.43976  -0.43907  -0.43857
 Alpha  occ. eigenvalues --   -0.43539  -0.43537  -0.43465  -0.43399  -0.43383
 Alpha  occ. eigenvalues --   -0.43333  -0.43321  -0.43213  -0.43199  -0.43108
 Alpha  occ. eigenvalues --   -0.43075  -0.42949  -0.42915  -0.42914  -0.42823
 Alpha  occ. eigenvalues --   -0.42816  -0.42786  -0.42762  -0.42696  -0.42635
 Alpha  occ. eigenvalues --   -0.42632  -0.42606  -0.42477  -0.42454  -0.42433
 Alpha  occ. eigenvalues --   -0.42402  -0.42331  -0.42318  -0.42308  -0.42295
 Alpha  occ. eigenvalues --   -0.42212  -0.42196  -0.42157  -0.42083  -0.42044
 Alpha  occ. eigenvalues --   -0.41940  -0.41894  -0.41883  -0.41832  -0.41704
 Alpha  occ. eigenvalues --   -0.41690  -0.41636  -0.41632  -0.41384  -0.41265
 Alpha  occ. eigenvalues --   -0.41025  -0.40998  -0.40866  -0.40828  -0.40633
 Alpha  occ. eigenvalues --   -0.40631  -0.40563  -0.40468  -0.40419  -0.40370
 Alpha  occ. eigenvalues --   -0.40342  -0.40320  -0.40133  -0.40010  -0.39909
 Alpha  occ. eigenvalues --   -0.39608  -0.39291  -0.39247  -0.39246  -0.39220
 Alpha  occ. eigenvalues --   -0.39191  -0.38876  -0.38844  -0.38702  -0.38659
 Alpha  occ. eigenvalues --   -0.38658  -0.38650  -0.38631  -0.38630  -0.38581
 Alpha  occ. eigenvalues --   -0.38577  -0.38532  -0.38507  -0.38368  -0.38362
 Alpha  occ. eigenvalues --   -0.38359  -0.38338  -0.38139  -0.38125  -0.38049
 Alpha  occ. eigenvalues --   -0.38002  -0.37993  -0.37989  -0.37983  -0.37870
 Alpha  occ. eigenvalues --   -0.37752  -0.37692  -0.37689  -0.37507  -0.37507
 Alpha  occ. eigenvalues --   -0.37474  -0.37433  -0.37393  -0.37290  -0.37281
 Alpha  occ. eigenvalues --   -0.37259  -0.37211  -0.36901  -0.36893  -0.36846
 Alpha  occ. eigenvalues --   -0.36786  -0.36707  -0.36686  -0.36684  -0.36587
 Alpha  occ. eigenvalues --   -0.36573  -0.36480  -0.36454  -0.36390  -0.36257
 Alpha  occ. eigenvalues --   -0.36236  -0.36167  -0.36164  -0.36062  -0.36026
 Alpha  occ. eigenvalues --   -0.36005  -0.35841  -0.35820  -0.35370  -0.35340
 Alpha  occ. eigenvalues --   -0.35319  -0.35312  -0.35277  -0.35262  -0.35199
 Alpha  occ. eigenvalues --   -0.35179  -0.35123  -0.35099  -0.35052  -0.35017
 Alpha  occ. eigenvalues --   -0.34571  -0.34570  -0.34508  -0.34504  -0.34391
 Alpha  occ. eigenvalues --   -0.34366  -0.34325  -0.34111  -0.34089  -0.34066
 Alpha  occ. eigenvalues --   -0.34017  -0.33917  -0.33754  -0.33668  -0.33646
 Alpha  occ. eigenvalues --   -0.33621  -0.33584  -0.33328  -0.33221  -0.33160
 Alpha  occ. eigenvalues --   -0.33095  -0.33090  -0.32795  -0.32789  -0.32732
 Alpha  occ. eigenvalues --   -0.32575  -0.32573  -0.32556  -0.32499  -0.32451
 Alpha  occ. eigenvalues --   -0.32422  -0.32284  -0.32280  -0.32194  -0.32079
 Alpha  occ. eigenvalues --   -0.31924  -0.31906  -0.31891  -0.31888  -0.31863
 Alpha  occ. eigenvalues --   -0.31711  -0.31687  -0.31398  -0.31374  -0.31309
 Alpha  occ. eigenvalues --   -0.31303  -0.30988  -0.30937  -0.30816  -0.30713
 Alpha  occ. eigenvalues --   -0.30699  -0.30580  -0.30168  -0.30057  -0.30046
 Alpha  occ. eigenvalues --   -0.30034  -0.29889  -0.29744  -0.29335  -0.29333
 Alpha  occ. eigenvalues --   -0.29189  -0.29147  -0.28778  -0.28673  -0.28554
 Alpha  occ. eigenvalues --   -0.28357  -0.28259  -0.28230  -0.28143  -0.27961
 Alpha  occ. eigenvalues --   -0.27829  -0.27529  -0.27487  -0.27297  -0.27222
 Alpha  occ. eigenvalues --   -0.27038  -0.26959  -0.26781  -0.26686  -0.26488
 Alpha  occ. eigenvalues --   -0.26347  -0.26325  -0.26325  -0.26303  -0.26295
 Alpha  occ. eigenvalues --   -0.26269  -0.26268  -0.26146  -0.26018  -0.26018
 Alpha  occ. eigenvalues --   -0.25983  -0.25651  -0.25594  -0.25589  -0.25346
 Alpha  occ. eigenvalues --   -0.25328  -0.25055  -0.25040  -0.24928  -0.24861
 Alpha  occ. eigenvalues --   -0.24754  -0.24672  -0.24404  -0.24359  -0.24336
 Alpha  occ. eigenvalues --   -0.24305  -0.23974  -0.23832  -0.23589  -0.23574
 Alpha  occ. eigenvalues --   -0.23526  -0.23510  -0.22705  -0.22625  -0.22367
 Alpha  occ. eigenvalues --   -0.22242  -0.21693  -0.21581  -0.20808  -0.20677
 Alpha  occ. eigenvalues --   -0.20588  -0.20482  -0.19975  -0.19813  -0.19047
 Alpha  occ. eigenvalues --   -0.18990  -0.18181  -0.18165
 Alpha virt. eigenvalues --   -0.11968  -0.11930  -0.11026  -0.10994  -0.10266
 Alpha virt. eigenvalues --   -0.10208  -0.09758  -0.09731  -0.09326  -0.09325
 Alpha virt. eigenvalues --   -0.08517  -0.08373  -0.08343  -0.08286  -0.08189
 Alpha virt. eigenvalues --   -0.08105  -0.08065  -0.08054  -0.07599  -0.07565
 Alpha virt. eigenvalues --   -0.07550  -0.07508  -0.07495  -0.07467  -0.07410
 Alpha virt. eigenvalues --   -0.07167  -0.07165  -0.06878  -0.06868  -0.06787
 Alpha virt. eigenvalues --   -0.06728  -0.06696  -0.06635  -0.06520  -0.06407
 Alpha virt. eigenvalues --   -0.06385  -0.06296  -0.06186  -0.06057  -0.06048
 Alpha virt. eigenvalues --   -0.05921  -0.05920  -0.05848  -0.05837  -0.05691
 Alpha virt. eigenvalues --   -0.05672  -0.05658  -0.05655  -0.05590  -0.05584
 Alpha virt. eigenvalues --   -0.05502  -0.05158  -0.05103  -0.04851  -0.04475
 Alpha virt. eigenvalues --   -0.04441  -0.04255  -0.04229  -0.04148  -0.04019
 Alpha virt. eigenvalues --   -0.03576  -0.03562  -0.03132  -0.03024  -0.02983
 Alpha virt. eigenvalues --   -0.02673  -0.02568  -0.02334  -0.02219  -0.01934
 Alpha virt. eigenvalues --   -0.01845  -0.01816  -0.01774  -0.01155  -0.00916
 Alpha virt. eigenvalues --   -0.00867  -0.00816  -0.00793  -0.00529  -0.00292
 Alpha virt. eigenvalues --   -0.00103  -0.00064   0.00093   0.00165   0.00651
 Alpha virt. eigenvalues --    0.00669   0.00760   0.00863   0.00880   0.01124
 Alpha virt. eigenvalues --    0.01126   0.01239   0.01478   0.01482   0.01503
 Alpha virt. eigenvalues --    0.01697   0.01737   0.01804   0.01808   0.01941
 Alpha virt. eigenvalues --    0.01944   0.02529   0.02544   0.02579   0.02841
 Alpha virt. eigenvalues --    0.02854   0.02899   0.03123   0.03349   0.03408
 Alpha virt. eigenvalues --    0.03529   0.03577   0.03970   0.03970   0.04102
 Alpha virt. eigenvalues --    0.04110   0.04286   0.04521   0.04543   0.05317
 Alpha virt. eigenvalues --    0.05398   0.05436   0.05467   0.05627   0.05688
 Alpha virt. eigenvalues --    0.05945   0.06035   0.06220   0.06637   0.06662
 Alpha virt. eigenvalues --    0.06752   0.06877   0.07065   0.07216   0.07524
 Alpha virt. eigenvalues --    0.07726   0.07767   0.07883   0.07936   0.08217
 Alpha virt. eigenvalues --    0.08277   0.08395   0.08424   0.08499   0.08554
 Alpha virt. eigenvalues --    0.08818   0.08947   0.09081   0.09146   0.09240
 Alpha virt. eigenvalues --    0.09252   0.09353   0.09371   0.09432   0.09568
 Alpha virt. eigenvalues --    0.09735   0.10136   0.10235   0.10426   0.10469
 Alpha virt. eigenvalues --    0.10879   0.10972   0.11000   0.11020   0.11159
 Alpha virt. eigenvalues --    0.11477   0.11606   0.11677   0.11823   0.11895
 Alpha virt. eigenvalues --    0.12183   0.12248   0.12252   0.12303   0.12410
 Alpha virt. eigenvalues --    0.12504   0.12651   0.12689   0.12771   0.12800
 Alpha virt. eigenvalues --    0.12833   0.12940   0.12986   0.12990   0.13114
 Alpha virt. eigenvalues --    0.13148   0.13166   0.13186   0.13234   0.13243
 Alpha virt. eigenvalues --    0.13262   0.13294   0.13351   0.13369   0.13455
 Alpha virt. eigenvalues --    0.13485   0.14125   0.14126   0.14309   0.14310
 Alpha virt. eigenvalues --    0.15188   0.15601   0.15604   0.15715   0.15849
 Alpha virt. eigenvalues --    0.15849   0.16099   0.16107   0.16466   0.16660
 Alpha virt. eigenvalues --    0.16692   0.16816   0.16844   0.16846   0.16865
 Alpha virt. eigenvalues --    0.16986   0.17001   0.17342   0.17401   0.17422
 Alpha virt. eigenvalues --    0.17487   0.17552   0.17750   0.17898   0.17947
 Alpha virt. eigenvalues --    0.18040   0.18085   0.18159   0.18243   0.18328
 Alpha virt. eigenvalues --    0.18680   0.18787   0.18837   0.18862   0.18896
 Alpha virt. eigenvalues --    0.18990   0.18997   0.19137   0.19157   0.19216
 Alpha virt. eigenvalues --    0.19227   0.19238   0.19311   0.19344   0.19492
 Alpha virt. eigenvalues --    0.19558   0.19580   0.19592   0.19676   0.19845
 Alpha virt. eigenvalues --    0.19947   0.20088   0.20094   0.20136   0.20163
 Alpha virt. eigenvalues --    0.20196   0.20259   0.20275   0.20405   0.20406
 Alpha virt. eigenvalues --    0.20492   0.20551   0.20663   0.20669   0.20764
 Alpha virt. eigenvalues --    0.20812   0.21112   0.21122   0.21143   0.21172
 Alpha virt. eigenvalues --    0.21329   0.21344   0.21432   0.21452   0.21518
 Alpha virt. eigenvalues --    0.21568   0.21611   0.21664   0.21671   0.21689
 Alpha virt. eigenvalues --    0.21732   0.21792   0.21813   0.21816   0.21845
 Alpha virt. eigenvalues --    0.21846   0.21979   0.22051   0.22121   0.22136
 Alpha virt. eigenvalues --    0.22174   0.22183   0.22291   0.22367   0.22528
 Alpha virt. eigenvalues --    0.22532   0.22608   0.22656   0.22662   0.22780
 Alpha virt. eigenvalues --    0.22875   0.22879   0.23029   0.23067   0.23114
 Alpha virt. eigenvalues --    0.23155   0.23213   0.23241   0.23315   0.23413
 Alpha virt. eigenvalues --    0.23482   0.23516   0.23544   0.23612   0.23675
 Alpha virt. eigenvalues --    0.23728   0.23893   0.23897   0.24004   0.24090
 Alpha virt. eigenvalues --    0.24183   0.24301   0.24388   0.24451   0.24462
 Alpha virt. eigenvalues --    0.24596   0.24770   0.24822   0.24878   0.24925
 Alpha virt. eigenvalues --    0.25100   0.25203   0.25226   0.25480   0.25546
 Alpha virt. eigenvalues --    0.25547   0.25721   0.25730   0.25785   0.25828
 Alpha virt. eigenvalues --    0.25900   0.25945   0.26102   0.26227   0.26299
 Alpha virt. eigenvalues --    0.26331   0.26374   0.26376   0.26502   0.26560
 Alpha virt. eigenvalues --    0.26686   0.26806   0.26867   0.26882   0.26988
 Alpha virt. eigenvalues --    0.27092   0.27099   0.27201   0.27248   0.27281
 Alpha virt. eigenvalues --    0.27325   0.27478   0.27712   0.27734   0.27946
 Alpha virt. eigenvalues --    0.28009   0.28099   0.28184   0.28225   0.28296
 Alpha virt. eigenvalues --    0.28447   0.28494   0.28659   0.28730   0.28808
 Alpha virt. eigenvalues --    0.28817   0.28844   0.29028   0.29135   0.29316
 Alpha virt. eigenvalues --    0.29355   0.29426   0.29518   0.29519   0.29762
 Alpha virt. eigenvalues --    0.29820   0.29905   0.29905   0.29938   0.29978
 Alpha virt. eigenvalues --    0.30092   0.30100   0.30156   0.30163   0.30482
 Alpha virt. eigenvalues --    0.30509   0.30682   0.30812   0.30826   0.30965
 Alpha virt. eigenvalues --    0.30975   0.31068   0.31134   0.31150   0.31493
 Alpha virt. eigenvalues --    0.31604   0.31647   0.31706   0.31719   0.31842
 Alpha virt. eigenvalues --    0.31850   0.31853   0.31976   0.31993   0.32035
 Alpha virt. eigenvalues --    0.32133   0.32136   0.32266   0.32339   0.32392
 Alpha virt. eigenvalues --    0.32526   0.32584   0.32657   0.32764   0.32841
 Alpha virt. eigenvalues --    0.32899   0.32986   0.33031   0.33101   0.33102
 Alpha virt. eigenvalues --    0.33199   0.33273   0.33371   0.33395   0.33429
 Alpha virt. eigenvalues --    0.33486   0.33597   0.33602   0.33624   0.33753
 Alpha virt. eigenvalues --    0.33825   0.33828   0.33939   0.33958   0.33998
 Alpha virt. eigenvalues --    0.34109   0.34113   0.34147   0.34203   0.34342
 Alpha virt. eigenvalues --    0.34455   0.34456   0.34509   0.34570   0.34724
 Alpha virt. eigenvalues --    0.34781   0.34844   0.34844   0.34921   0.34924
 Alpha virt. eigenvalues --    0.35082   0.35127   0.35199   0.35214   0.35330
 Alpha virt. eigenvalues --    0.35337   0.35402   0.35411   0.35511   0.35582
 Alpha virt. eigenvalues --    0.35619   0.35695   0.35751   0.35797   0.35832
 Alpha virt. eigenvalues --    0.35843   0.35896   0.35898   0.35999   0.36060
 Alpha virt. eigenvalues --    0.36067   0.36072   0.36107   0.36109   0.36247
 Alpha virt. eigenvalues --    0.36289   0.36337   0.36338   0.36385   0.36397
 Alpha virt. eigenvalues --    0.36400   0.36429   0.36476   0.36502   0.36514
 Alpha virt. eigenvalues --    0.36549   0.36580   0.36651   0.36654   0.36679
[...]
   177  C   -0.000461  -0.000461
   178  C   -0.000368  -0.000368
   179  C   -0.000435  -0.000435
   180  C   -0.000370  -0.000370
   181  C   -0.000382  -0.000382
   182  C   -0.000357  -0.000357
   183  C   -0.000386  -0.000386
   184  C   -0.000378  -0.000378
   185  C   -0.000376  -0.000376
   186  C   -0.000394  -0.000394
   187  C   -0.000371  -0.000371
   188  C   -0.000428  -0.000428
   189  C   -0.000358  -0.000358
   190  C   -0.000453  -0.000453
   191  C   -0.000317  -0.000317
   192  C   -0.000444  -0.000444
   193  C   -0.000351  -0.000351
   194  C   -0.000517  -0.000517
   195  C   -0.000543  -0.000543
   196  C   -0.000378  -0.000378
   197  C   -0.000525  -0.000525
   198  C   -0.000359  -0.000359
   199  C   -0.000523  -0.000523
   200  C   -0.000363  -0.000363
   201  C   -0.000465  -0.000465
   202  C   -0.000356  -0.000356
   203  C   -0.000459  -0.000459
   204  C   -0.000381  -0.000381
   205  C   -0.000414  -0.000414
   206  C   -0.000357  -0.000357
   207  C   -0.000382  -0.000382
   208  C   -0.000359  -0.000359
   209  C   -0.000380  -0.000380
   210  C   -0.000392  -0.000392
   211  C   -0.000342  -0.000342
   212  C   -0.000395  -0.000395
   213  C   -0.000344  -0.000344
   214  C   -0.000428  -0.000428
   215  C   -0.000350  -0.000350
   216  C   -0.000444  -0.000444
   217  C   -0.000715  -0.000715
   218  C   -0.000396  -0.000396
   219  C   -0.000644  -0.000644
   220  C   -0.000443  -0.000443
   221  C   -0.000512  -0.000512
   222  C   -0.000358  -0.000358
   223  C   -0.000551  -0.000551
   224  C   -0.000391  -0.000391
   225  C   -0.000523  -0.000523
   226  C   -0.000383  -0.000383
   227  C   -0.000443  -0.000443
   228  C   -0.000356  -0.000356
   229  C   -0.000430  -0.000430
   230  C   -0.000371  -0.000371
   231  C   -0.000390  -0.000390
   232  C   -0.000355  -0.000355
   233  C   -0.000374  -0.000374
   234  C   -0.000371  -0.000371
   235  C   -0.000379  -0.000379
   236  C   -0.000386  -0.000386
   237  C   -0.000355  -0.000355
   238  C   -0.000380  -0.000380
   239  C   -0.001090  -0.001090
   240  C   -0.000556  -0.000557
   241  C   -0.000456  -0.000456
   242  C   -0.000445  -0.000445
   243  C   -0.000632  -0.000632
   244  C   -0.000430  -0.000430
   245  C   -0.000664  -0.000664
   246  C   -0.000421  -0.000421
   247  C   -0.000540  -0.000540
   248  C   -0.000375  -0.000375
   249  C   -0.000526  -0.000526
   250  C   -0.000418  -0.000418
   251  C   -0.000473  -0.000473
   252  C   -0.000376  -0.000376
   253  C   -0.000442  -0.000442
   254  C   -0.000355  -0.000355
   255  C   -0.000444  -0.000444
   256  C   -0.000359  -0.000359
   257  C   -0.000399  -0.000399
   258  C   -0.000339  -0.000339
   259  C   -0.000392  -0.000392
   260  C   -0.000356  -0.000356
   261  C    0.000531   0.000474
   262  C   -0.000910  -0.001083
   263  C   -0.000456  -0.000457
   264  C   -0.000723  -0.000725
   265  C   -0.000795  -0.000795
   266  C   -0.000457  -0.000457
   267  C   -0.000604  -0.000604
   268  C   -0.000358  -0.000358
   269  C   -0.000657  -0.000657
   270  C   -0.000486  -0.000486
   271  C   -0.000594  -0.000594
   272  C   -0.000464  -0.000464
   273  C   -0.000530  -0.000530
   274  C   -0.000387  -0.000387
   275  C   -0.000571  -0.000571
   276  C   -0.000417  -0.000417
   277  C   -0.000486  -0.000486
   278  C   -0.000337  -0.000337
   279  C   -0.000458  -0.000458
   280  C   -0.000335  -0.000335
   281  C   -0.000439  -0.000439
   282  C   -0.000344  -0.000344
   283  C   -0.001938  -0.008921
   284  C    0.005837   0.014351
   285  C   -0.000605  -0.000830
   286  C   -0.000372  -0.000726
   287  C   -0.001190  -0.001203
   288  C   -0.000833  -0.000845
   289  C   -0.001036  -0.001037
   290  C   -0.000752  -0.000752
   291  C   -0.000734  -0.000734
   292  C   -0.000563  -0.000563
   293  C   -0.000602  -0.000602
   294  C   -0.000396  -0.000396
   295  C   -0.000702  -0.000702
   296  C   -0.000521  -0.000521
   297  C   -0.000632  -0.000632
   298  C   -0.000434  -0.000434
   299  C   -0.000577  -0.000577
   300  C   -0.000382  -0.000382
   301  C   -0.000574  -0.000574
   302  C   -0.000376  -0.000376
   303  C   -0.000463  -0.000463
   304  C   -0.000337  -0.000337
   305  C    0.007276   0.011561
   306  C    0.011874   0.015116
   307  C   -0.001625  -0.005615
   308  C   -0.000766  -0.004744
   309  C   -0.000175  -0.000398
   310  C   -0.000052  -0.000273
   311  C   -0.001227  -0.001239
   312  C   -0.000796  -0.000809
   313  C   -0.001100  -0.001101
   314  C   -0.000824  -0.000824
   315  C   -0.000718  -0.000718
   316  C   -0.000580  -0.000580
   317  C   -0.000645  -0.000645
   318  C   -0.000384  -0.000384
   319  C   -0.000811  -0.000811
   320  C   -0.000550  -0.000550
   321  C   -0.000603  -0.000603
   322  C   -0.000412  -0.000412
   323  C   -0.000571  -0.000571
   324  C   -0.000389  -0.000389
   325  C    0.008722   0.012877
   326  C    0.009064   0.013319
   327  C   -0.001650  -0.005646
   328  C   -0.000709  -0.004720
   329  C   -0.000054  -0.000278
   330  C   -0.000222  -0.000444
   331  C   -0.001334  -0.001347
   332  C   -0.000922  -0.000934
   333  C   -0.001188  -0.001189
   334  C   -0.000892  -0.000892
   335  C   -0.000819  -0.000819
   336  C   -0.000539  -0.000539
   337  C   -0.000721  -0.000721
   338  C   -0.000523  -0.000523
   339  C   -0.000762  -0.000762
   340  C   -0.000495  -0.000495
   341  C    0.008565   0.012742
   342  C    0.009166   0.013484
   343  C   -0.001542  -0.005555
   344  C   -0.000530  -0.004560
   345  C   -0.000080  -0.000304
   346  C   -0.000143  -0.000365
   347  C   -0.001443  -0.001455
   348  C   -0.000956  -0.000968
   349  C   -0.001476  -0.001477
   350  C   -0.001125  -0.001126
   351  C   -0.000643  -0.000643
   352  C   -0.000536  -0.000536
   353  C    0.008382   0.012608
   354  C    0.008932   0.013274
   355  C   -0.001312  -0.005343
   356  C   -0.000599  -0.004634
   357  C   -0.000178  -0.000407
   358  C    0.000047  -0.000179
   359  C   -0.001628  -0.001639
   360  C   -0.001616  -0.001628
   361  C    0.009294   0.013408
   362  C    0.009530   0.013825
   363  C   -0.001061  -0.005071
   364  C   -0.000483  -0.004598
 
 EQQ=  0.00000000000     EQD=  0.00000000000     EDD= 0.351422685279E-01
 EQQ+QD+DD= 0.351422685279E-01
 
 1\1\GINC-CU13\SP\RB3LYP\6-311G(d)\C364H22\WANG\09-Jul-2025\0\\# B3LYP/
 6-311G* Pop=Hirshfeld NOSYMM\\From ../../cnt_6_5-1_opt.out\\0,1\C,0,3.
 744876,0.152708,2.407348\C,0,3.528907,-1.25896,2.470595\C,0,3.205547,2
 .133206,1.088361\C,0,3.688385,0.818502,1.144474\C,0,3.745729,0.277842,
 4.868794\C,0,3.581207,-1.133621,4.940585\C,0,3.05542,2.223848,3.514176
 \C,0,3.633871,0.925353,3.594306\C,0,1.466829,3.571039,2.175675\C,0,2.6
 73587,2.75374,2.237452\C,0,-0.575622,3.873153,0.879324\C,0,0.798008,3.
 864939,0.95111\C,0,3.752825,0.402589,7.328692\C,0,3.632204,-1.0162,7.4
 02232\C,0,2.988927,2.322671,5.985994\C,0,3.628057,1.046311,6.060293\C,
 0,1.329725,3.539436,4.645791\C,0,2.54098,2.803134,4.717937\C,0,-0.7252
 51,3.706522,3.29064\C,0,0.706482,3.721411,3.363963\C,0,-2.586339,2.798
 63,1.952928\C,0,-1.366225,3.572878,2.028624\C,0,-3.709475,1.073814,0.6
 46906\C,0,-3.117687,2.310884,0.719367\C,0,3.742293,0.529464,9.793129\C
 ,0,3.671152,-0.89496,9.866912\C,0,2.90983,2.416564,8.4507\C,0,3.5938,1
 .167915,8.524456\C,0,1.211157,3.587346,7.105187\C,0,2.450708,2.885272,
 7.179037\C,0,-0.849636,3.680563,5.763248\C,0,0.577244,3.742683,5.83681
 8\C,0,-2.634139,2.665794,4.418287\C,0,-1.464014,3.461814,4.493825\C,0,
 -3.651054,0.873003,3.064214\C,0,-3.056712,2.17497,3.139527\C,0,-3.6224
 47,-1.197202,1.72923\C,0,-3.793256,0.234621,1.801436\C,0,-2.546699,-2.
 95291,0.425143\C,0,-3.413049,-1.892021,0.495809\C,0,3.722756,0.65489,1
 2.257212\C,0,3.700634,-0.769458,12.331405\C,0,2.826344,2.512517,10.912
 82\C,0,3.554107,1.287553,10.98678\C,0,1.087727,3.62383,9.569791\C,0,2.
 35251,2.964228,9.643818\C,0,-0.972729,3.648858,8.225726\C,0,0.446428,3
 .755379,8.300506\C,0,-2.740645,2.585938,6.878406\C,0,-1.586422,3.42410
 1,6.952974\C,0,-3.686786,0.753275,5.53812\C,0,-3.140661,2.070337,5.612
 415\C,0,-3.527192,-1.294954,4.194825\C,0,-3.748868,0.102549,4.267965\C
 ,0,-2.336037,-2.978938,2.844261\C,0,-3.263539,-1.888645,2.917989\C,0,-
 0.445475,-3.813016,1.507713\C,0,-1.816153,-3.376958,1.581309\C,0,1.589
 757,-3.544384,0.195446\C,0,0.271788,-3.908398,0.270372\C,0,3.699373,0.
 781001,14.720432\C,0,3.725564,-0.643579,14.794822\C,0,2.739415,2.60648
 ,13.376671\C,0,3.509747,1.407103,13.45078\C,0,0.963821,3.654481,12.032
 929\C,0,2.248493,3.039438,12.107327\C,0,-1.097904,3.613407,10.687483\C
 ,0,0.319159,3.76627,10.762339\C,0,-2.830265,2.493599,9.343965\C,0,-1.7
 04164,3.369414,9.418392\C,0,-3.715252,0.631658,8.000327\C,0,-3.215048,
 1.963692,8.074234\C,0,-3.500123,-1.422138,6.656574\C,0,-3.770576,-0.02
 1349,6.729461\C,0,-2.238043,-3.053737,5.317971\C,0,-3.201604,-2.004382
 ,5.391186\C,0,-0.311774,-3.765499,3.97244\C,0,-1.675274,-3.386971,4.04
 6989\C,0,1.708892,-3.366422,2.618062\C,0,0.335705,-3.770378,2.694925\C
 ,0,3.226761,-1.970408,1.275127\C,0,2.276059,-3.042602,1.350912\C,0,3.8
 22646,0.002508,-0.034033\C,0,3.587833,-1.341213,0.030557\C,0,3.670924,
 0.906492,17.184153\C,0,3.745565,-0.51667,17.258606\C,0,2.64895,2.69725
 ,15.840119\C,0,3.459523,1.525528,15.914483\C,0,0.838748,3.684737,14.49
 5574\C,0,2.144115,3.113369,14.570105\C,0,-1.220521,3.57388,13.151504\C
 ,0,0.190793,3.774013,13.226148\C,0,-2.91322,2.396968,11.807259\C,0,-1.
 818174,3.307634,11.881743\C,0,-3.739397,0.506161,10.463084\C,0,-3.2832
 65,1.857218,10.536631\C,0,-3.452228,-1.537817,9.122376\C,0,-3.7714,-0.
 148168,9.195301\C,0,-2.136092,-3.125634,7.779824\C,0,-3.135001,-2.1124
 14,7.852938\C,0,-0.181461,-3.787926,6.435467\C,0,-1.567877,-3.451911,6
 .509505\C,0,1.821755,-3.311816,5.09283\C,0,0.470579,-3.757897,5.168456
 \C,0,3.261721,-1.85007,3.74507\C,0,2.354331,-2.935975,3.819428\C,0,3.6
 37541,1.03077,19.647739\C,0,3.760505,-0.388879,19.722229\C,0,2.555498,
 2.785891,18.303323\C,0,3.405499,1.642284,18.377825\C,0,0.712902,3.7114
 49,16.959015\C,0,2.037029,3.184536,17.033577\C,0,-1.341101,3.530763,15
 .614838\C,0,0.06203,3.777719,15.689385\C,0,-2.994983,2.298422,14.27052
 1\C,0,-1.930022,3.245518,14.344784\C,0,-3.75611,0.380877,12.927807\C,0
 ,-3.346381,1.746189,13.001303\C,0,-3.398119,-1.650712,11.58538\C,0,-3.
 764689,-0.274475,11.658391\C,0,-2.028804,-3.1951,10.242767\C,0,-3.0645
 91,-2.215028,10.315861\C,0,-0.053169,-3.787348,8.900745\C,0,-1.448861,
 -3.499442,8.974881\C,0,1.93546,-3.249084,7.55466\C,0,0.599645,-3.73947
 9,7.629961\C,0,3.343799,-1.742902,6.209128\C,0,2.464334,-2.865968,6.28
 3574\C,0,3.599953,1.153893,22.11117\C,0,3.771113,-0.260699,22.185635\C
 ,0,2.459186,2.871499,20.766752\C,0,3.34744,1.757269,20.841275\C,0,0.58
 6422,3.734225,19.42243\C,0,1.927359,3.252196,19.497011\C,0,-1.460606,3
 .484548,18.07811\C,0,-0.066296,3.778529,18.152544\C,0,-3.072028,2.1970
 01,16.734489\C,0,-2.0396,3.17941,16.808571\C,0,-3.767609,0.255098,15.3
 91446\C,0,-3.404545,1.632807,15.464974\C,0,-3.341479,-1.763869,14.0487
 6\C,0,-3.755564,-0.39993,14.121829\C,0,-1.919219,-3.258492,12.706921\C
 ,0,-2.987598,-2.315357,12.78022\C,0,0.075079,-3.782546,11.363237\C,0,-
 1.328633,-3.542006,11.437351\C,0,2.047342,-3.180458,10.018337\C,0,0.72
 5607,-3.715211,10.093263\C,0,3.405603,-1.630493,8.674043\C,0,2.562529,
 -2.778375,8.748956\C,0,3.558497,1.27556,24.574428\C,0,3.777604,-0.1322
 46,24.648773\C,0,2.360185,2.95388,23.230365\C,0,3.28567,1.870157,23.30
 4811\C,0,0.459321,3.752847,21.885896\C,0,1.8157,3.316283,21.960473\C,0
 ,-1.578201,3.434345,20.541652\C,0,-0.194571,3.775242,20.61604\C,0,-3.1
 44961,2.092871,19.198119\C,0,-2.146543,3.109519,19.27213\C,0,-3.77485,
 0.128462,17.855035\C,0,-3.458669,1.518025,17.928535\C,0,-3.28014,-1.87
 445,16.512643\C,0,-3.740512,-0.525682,16.585876\C,0,-1.80789,-3.319325
 ,15.169928\C,0,-2.907393,-2.41328,15.243376\C,0,0.203643,-3.776431,13.
 826481\C,0,-1.20851,-3.583148,13.900508\C,0,2.153916,-3.107701,12.4824
 73\C,0,0.851525,-3.68517,12.557298\C,0,3.462013,-1.514564,11.136892\C,
 0,2.656519,-2.68933,11.211768\C,0,3.513608,1.395993,27.038044\C,0,3.78
 0838,-0.004154,27.112153\C,0,2.258285,3.032013,25.694128\C,0,3.219879,
 1.980621,25.768459\C,0,0.331696,3.766847,24.349382\C,0,1.701992,3.3763
 27,24.42396\C,0,-1.693997,3.380026,23.005262\C,0,-0.32256,3.767466,23.
 079702\C,0,-3.21434,1.986288,21.661573\C,0,-2.250961,3.036171,21.73557
 9\C,0,-3.777296,0.001634,20.318719\C,0,-3.5084,1.401107,20.392201\C,0,
 -3.214963,-1.983178,18.976132\C,0,-3.720599,-0.650944,19.049479\C,0,-1
 .694723,-3.377641,17.633222\C,0,-2.824592,-2.509104,17.706733\C,0,0.33
 1037,-3.765846,16.290045\C,0,-1.086483,-3.620316,16.364086\C,0,2.25820
 9,-3.0323,14.945638\C,0,0.975751,-3.652788,15.020272\C,0,3.513604,-1.3
 96286,13.60105\C,0,2.747427,-2.59822,13.675684\C,0,3.463962,1.513351,2
 9.502021\C,0,3.779693,0.123965,29.575983\C,0,2.153611,3.105873,28.1575
 26\C,0,3.150363,2.0882,28.231636\C,0,0.203245,3.776175,26.813337\C,0,1
 .586415,3.431972,26.887941\C,0,-1.807686,3.321354,25.468724\C,0,-0.450
 425,3.754559,25.543345\C,0,-3.28049,1.877544,24.12486\C,0,-2.35294,2.9
 59318,24.198899\C,0,-3.775591,-0.125226,22.782304\C,0,-3.554222,1.2825
 91,22.855752\C,0,-3.14622,-2.089861,21.439616\C,0,-3.696607,-0.775506,
 21.512963\C,0,-1.579726,-3.432092,20.096805\C,0,-2.738311,-2.602323,20
 .170352\C,0,0.457946,-3.751505,18.753325\C,0,-0.963621,-3.653923,18.82
 7379\C,0,2.35978,-2.953653,17.409207\C,0,1.098557,-3.61715,17.483661\C
 ,0,3.558993,-1.276185,16.065014\C,0,2.833947,-2.502783,16.139584\C,0,3
 .410794,1.627591,31.964389\C,0,3.774718,0.251188,32.038142\C,0,2.04598
 6,3.176419,30.622009\C,0,3.078612,2.192717,30.695721\C,0,0.074657,3.77
 9276,29.277278\C,0,1.467654,3.481904,29.352091\C,0,-1.920128,3.259192,
 27.931752\C,0,-0.577955,3.73708,28.006569\C,0,-3.343658,1.766716,26.58
 8443\C,0,-2.452695,2.87926,26.662508\C,0,-3.769654,-0.251585,25.245614
 \C,0,-3.59631,1.162535,25.319025\C,0,-3.074009,-2.194123,23.903182\C,0
 ,-3.668835,-0.899068,23.976417\C,0,-1.462854,-3.482523,22.560494\C,0,-
 2.648901,-2.692469,22.634041\C,0,0.584354,-3.733121,21.21675\C,0,-0.83
 9738,-3.68356,21.290842\C,0,2.458132,-2.871515,19.872801\C,0,1.220041,
 -3.57709,19.947201\C,0,3.60009,-1.154413,18.528471\C,0,2.9168,-2.40479
 3,18.603008\C,0,3.35212,1.739506,34.428618\C,0,3.767699,0.373859,34.50
 291\C,0,1.934496,3.237601,33.086684\C,0,2.999165,2.292082,33.160188\C,
 0,-0.054687,3.778928,31.740084\C,0,1.347065,3.526934,31.814917\C,0,-2.
 032071,3.194029,30.395816\C,0,-0.705238,3.716021,30.470738\C,0,-3.4025
 97,1.654161,29.051621\C,0,-2.550236,2.795104,29.125796\C,0,-3.760427,-
 0.377748,27.708719\C,0,-3.635456,1.041864,27.782024\C,0,-2.998145,-2.2
 95476,26.367161\C,0,-3.637151,-1.021361,26.440232\C,0,-1.34428,-3.5283
 17,25.024056\C,0,-2.556113,-2.779056,25.097595\C,0,0.710301,-3.710536,
 23.680323\C,0,-0.714865,-3.708773,23.754489\C,0,2.553719,-2.786072,22.
 336276\C,0,1.340136,-3.532959,22.410721\C,0,3.636833,-1.031277,20.9918
 99\C,0,2.996263,-2.304103,21.066431\C,0,3.273095,1.831337,36.89465\C,0
 ,3.747708,0.491343,36.974772\C,0,1.816877,3.287872,35.548333\C,0,2.908
 216,2.37775,35.620116\C,0,-0.186054,3.774801,34.205443\C,0,1.225007,3.
 565926,34.279811\C,0,-2.139904,3.124514,32.859116\C,0,-0.833474,3.6884
 61,32.934417\C,0,-3.460456,1.540315,31.514115\C,0,-2.646529,2.710095,3
 1.588317\C,0,-3.747381,-0.503574,30.173026\C,0,-3.671501,0.920396,30.2
 46176\C,0,-2.918526,-2.392752,28.830519\C,0,-3.600447,-1.142394,28.903
 526\C,0,-1.223936,-3.570404,27.487706\C,0,-2.461007,-2.862156,27.56117
 2\C,0,0.835494,-3.683155,26.144173\C,0,-0.588941,-3.729133,26.218481\C
 ,0,2.646452,-2.697431,24.79948\C,0,1.458892,-3.484538,24.874046\C,0,3.
 66961,-0.90693,23.455302\C,0,3.072511,-2.200911,23.529838\C,0,3.238812
 ,1.946282,39.344505\C,0,3.793812,0.660405,39.400629\C,0,1.692725,3.342
 939,38.018331\C,0,2.821414,2.467982,38.081595\C,0,-0.313907,3.749752,3
 6.66957\C,0,1.091835,3.587317,36.743862\C,0,-2.245896,3.048625,35.3205
 91\C,0,-0.958958,3.655516,35.396221\C,0,-3.513907,1.423603,33.9795\C,0
 ,-2.739763,2.621849,34.053596\C,0,-3.728171,-0.626667,32.635913\C,0,-3
 .701513,0.79594,32.709117\C,0,-2.836854,-2.48918,31.293541\C,0,-3.5623
 02,-1.261658,31.366453\C,0,-1.101842,-3.607395,29.952348\C,0,-2.362767
 ,-2.941478,30.025831\C,0,0.959394,-3.650908,28.607291\C,0,-0.461776,-3
 .744185,28.681766\C,0,2.737329,-2.605963,27.262793\C,0,1.576149,-3.432
 719,27.33748\C,0,3.698308,-0.781686,25.918749\C,0,3.145551,-2.095046,2
 5.993299\C,0,1.678836,3.443314,40.458356\C,0,2.774333,2.630539,40.5229
 83\C,0,-0.444069,3.773271,39.138071\C,0,0.983675,3.650768,39.213796\C,
 0,-2.352162,2.964624,37.794097\C,0,-1.078305,3.61733,37.870956\C,0,-3.
 546966,1.302318,36.441998\C,0,-2.81853,2.51548,36.516593\C,0,-3.70247,
 -0.751112,35.097662\C,0,-3.725876,0.673343,35.17097\C,0,-2.749404,-2.5
 80829,33.759368\C,0,-3.517866,-1.378776,33.832233\C,0,-0.979292,-3.637
 438,32.414718\C,0,-2.25924,-3.015979,32.488549\C,0,1.084444,-3.616664,
 31.070679\C,0,-0.335244,-3.756921,31.145067\C,0,2.825037,-2.511566,29.
 726656\C,0,1.692206,-3.376488,29.801572\C,0,3.723452,-0.656117,28.3815
 18\C,0,3.215502,-1.98679,28.455975\C,0,-2.493672,3.02093,40.218613\C,0
 ,-1.287272,3.664532,40.293529\C,0,-3.642311,1.198027,38.907684\C,0,-2.
 948169,2.457818,38.981306\C,0,-3.667772,-0.87782,37.570885\C,0,-3.7454
 17,0.551485,37.644697\C,0,-2.64855,-2.655842,36.220893\C,0,-3.450203,-
 1.489855,36.294016\C,0,-0.852111,-3.663374,34.876515\C,0,-2.155219,-3.
 084735,34.950741\C,0,1.20725,-3.574751,33.536068\C,0,-0.206883,-3.7618
 05,33.610595\C,0,2.909825,-2.415702,32.188502\C,0,1.807187,-3.315446,3
 2.263331\C,0,3.747532,-0.529767,30.845046\C,0,3.284321,-1.878923,30.91
 9147\C,0,-3.778586,-0.978344,39.993085\C,0,-3.88041,0.387553,40.063808
 \C,0,-2.589663,-2.782078,38.687448\C,0,-3.451999,-1.626394,38.75964\C,
 0,-0.719269,-3.681461,37.349394\C,0,-2.046958,-3.147002,37.424664\C,0,
 1.321839,-3.517646,35.995161\C,0,-0.074803,-3.746145,36.070664\C,0,2.9
 95951,-2.316298,34.652181\C,0,1.918093,-3.253356,34.725769\C,0,3.76460
 1,-0.404748,33.309872\C,0,3.348825,-1.76729,33.383785\C,0,-0.669802,-3
 .82198,39.769553\C,0,-1.950866,-3.332664,39.842001\C,0,1.46925,-3.5310
 24,38.460324\C,0,0.051331,-3.8097,38.535986\C,0,3.074977,-2.211924,37.
 125032\C,0,2.026109,-3.186573,37.198341\C,0,3.77344,-0.282976,35.77101
 5\C,0,3.40187,-1.650884,35.843207\C,0,3.240007,-2.252982,39.537909\C,0
 ,2.249318,-3.204536,39.609656\C,0,3.835335,-0.155837,38.251523\C,0,3.5
 22904,-1.579423,38.313332\H,0,3.013354,2.555633,0.106863\H,0,-1.045926
 ,3.963113,-0.094775\H,0,1.367431,3.951104,0.030763\H,0,-3.980721,0.681
 326,-0.327966\H,0,-2.940534,2.860155,-0.200109\H,0,-2.312027,-3.373513
 ,-0.547506\H,0,-3.842677,-1.504029,-0.422558\H,0,2.070289,-3.50849,-0.
 777028\H,0,-0.2594,-4.152691,-0.644348\H,0,3.976311,0.484718,-0.996213
 \H,0,3.562397,-1.918356,-0.888458\H,0,3.945125,0.221601,40.382097\H,0,
 1.263013,3.844425,41.377342\H,0,3.217859,2.386767,41.485164\H,0,-3.047
 049,2.832313,41.13336\H,0,-0.914121,3.969381,41.266013\H,0,-3.823185,-
 1.555585,40.911413\H,0,-3.999751,0.854177,41.036456\H,0,-0.163046,-4.0
 98083,40.689055\H,0,-2.417808,-3.234822,40.816881\H,0,3.712294,-1.9234
 8,40.458276\H,0,1.970087,-3.593551,40.583736\\Version=ES64L-G16RevB.01
 \HF=-13888.2952252\RMSD=8.453e-09\Dipole=-0.0557646,-0.0221202,-0.0000
 901\Quadrupole=-158.3815369,-157.7627821,316.1443189,-0.2922212,0.0900
 971,-6.4195227\PG=C01 [X(C364H22)]\\@


 MY DESCRIPTION OF EXPERIENCE IS NOT WHAT HAPPENS
 TO A MAN.  EXPERIENCE IS WHAT A MAN DOES WITH WHAT
 HAPPENS TO HIM.
                         - CHUCK KNOX, SEATTLE SEAHAWKS, 1985
 Job cpu time:       2 days 16 hours 58 minutes 16.0 seconds.
 Elapsed time:       0 days  2 hours 19 minutes 59.5 seconds.
 File lengths (MBytes):  RWF=  23422 Int=      0 D2E=      0 Chk=   2509 Scr=      1
 Normal termination of Gaussian 16 at Wed Jul  9 00:38:27 2025.
