 Entering Gaussian System, Link 0=g16
 Initial command:
 /opt/software/g16/l1.exe "/tmp/cnt_6_6-18_sgp-25856.tmp/Gau-76547.inp" -scrdir="/tmp/cnt_6_6-18_sgp-25856.tmp/"
 Entering Link 1 = /opt/software/g16/l1.exe PID=     76548.
  
 Copyright (c) 1988-2017, Gaussian, Inc.  All Rights Reserved.
  
 This is part of the Gaussian(R) 16 program.  It is based on
 the Gaussian(R) 09 system (copyright 2009, Gaussian, Inc.),
 the Gaussian(R) 03 system (copyright 2003, Gaussian, Inc.),
 the Gaussian(R) 98 system (copyright 1998, Gaussian, Inc.),
 the Gaussian(R) 94 system (copyright 1995, Gaussian, Inc.),
 the Gaussian 92(TM) system (copyright 1992, Gaussian, Inc.),
 the Gaussian 90(TM) system (copyright 1990, Gaussian, Inc.),
 the Gaussian 88(TM) system (copyright 1988, Gaussian, Inc.),
 the Gaussian 86(TM) system (copyright 1986, Carnegie Mellon
 University), and the Gaussian 82(TM) system (copyright 1983,
 Carnegie Mellon University). Gaussian is a federally registered
 trademark of Gaussian, Inc.
  
 This software contains proprietary and confidential information,
 including trade secrets, belonging to Gaussian, Inc.
  
 This software is provided under written license and may be
 used, copied, transmitted, or stored only in accord with that
 written license.
  
 The following legend is applicable only to US Government
 contracts under FAR:
  
                    RESTRICTED RIGHTS LEGEND
  
 Use, reproduction and disclosure by the US Government is
 subject to restrictions as set forth in subparagraphs (a)
 and (c) of the Commercial Computer Software - Restricted
 Rights clause in FAR 52.227-19.
  
 Gaussian, Inc.
 340 Quinnipiac St., Bldg. 40, Wallingford CT 06492
  
  
 ---------------------------------------------------------------
 Warning -- This program may not be used in any manner that
 competes with the business of Gaussian, Inc. or will provide
 assistance to any competitor of Gaussian, Inc.  The licensee
 of this program is prohibited from giving any competitor of
 Gaussian, Inc. access to this program.  By using this program,
 the user acknowledges that Gaussian, Inc. is engaged in the
 business of creating and licensing software in the field of
 computational chemistry and represents and warrants to the
 licensee that it is not a competitor of Gaussian, Inc. and that
 it will not use this program in any manner prohibited above.
 ---------------------------------------------------------------
  

 Cite this work as:
 Gaussian 16, Revision B.01,
 M. J. Frisch, G. W. Trucks, H. B. Schlegel, G. E. Scuseria, 
 M. A. Robb, J. R. Cheeseman, G. Scalmani, V. Barone, 
 G. A. Petersson, H. Nakatsuji, X. Li, M. Caricato, A. V. Marenich, 
 J. Bloino, B. G. Janesko, R. Gomperts, B. Mennucci, H. P. Hratchian, 
 J. V. Ortiz, A. F. Izmaylov, J. L. Sonnenberg, D. Williams-Young, 
 F. Ding, F. Lipparini, F. Egidi, J. Goings, B. Peng, A. Petrone, 
 T. Henderson, D. Ranasinghe, V. G. Zakrzewski, J. Gao, N. Rega, 
 G. Zheng, W. Liang, M. Hada, M. Ehara, K. Toyota, R. Fukuda, 
 J. Hasegawa, M. Ishida, T. Nakajima, Y. Honda, O. Kitao, H. Nakai, 
 T. Vreven, K. Throssell, J. A. Montgomery, Jr., J. E. Peralta, 
 F. Ogliaro, M. J. Bearpark, J. J. Heyd, E. N. Brothers, K. N. Kudin, 
 V. N. Staroverov, T. A. Keith, R. Kobayashi, J. Normand, 
 K. Raghavachari, A. P. Rendell, J. C. Burant, S. S. Iyengar, 
 J. Tomasi, M. Cossi, J. M. Millam, M. Klene, C. Adamo, R. Cammi, 
 J. W. Ochterski, R. L. Martin, K. Morokuma, O. Farkas, 
 J. B. Foresman, and D. J. Fox, Gaussian, Inc., Wallingford CT, 2016.
 
 ******************************************
 Gaussian 16:  ES64L-G16RevB.01 20-Dec-2017
                 7-Jul-2025 
 ******************************************
 %nproc=28
 Will use up to   28 processors via shared memory.
 ------------------------------------
 # B3LYP/6-311G* Pop=Hirshfeld NOSYMM
 ------------------------------------
 1/38=1,172=1/1;
 2/12=2,15=1,17=6,18=5,40=1/2;
 3/5=4,6=6,7=1,11=2,25=1,30=1,74=-5/1,2,3;
 4//1;
 5/5=2,38=5/2;
 6/7=2,8=2,9=2,10=2,28=1,79=1/1;
 99/5=1,9=1/99;
 -----------------------------
 From ../../cnt_6_6-18_opt.out
 -----------------------------
 Symbolic Z-matrix:
 Charge =  0 Multiplicity = 1
 6                     3.59885   2.07887   1.16664 
 6                     4.09319   0.72073   1.16666 
 6                     3.54489   2.04269   3.63401 
 6                     4.02841   0.71382   3.63403 
 6                     3.56223   2.05838   6.09999 
 6                     4.05178   0.71294   6.09999 
 6                     3.56085   2.05463   8.5713 
 6                     4.04831   0.71493   8.5713 
 6                     3.55998   2.05359   11.03388 
 6                     4.04698   0.71517   11.03388 
 6                     3.56288   2.05827   13.50342 
 6                     4.05221   0.71343   13.50342 
 6                     3.55943   2.05278   15.97103 
 6                     4.04603   0.71542   15.97103 
 6                     3.56143   2.0559    18.435 
 6                     4.04958   0.71432   18.435 
 6                     3.56202   2.05685   20.90563 
 6                     4.05063   0.71396   20.90563 
 6                     3.55927   2.0525    23.37062 
 6                     4.04573   0.71553   23.37062 
 6                     3.56252   2.05765   25.83684 
 6                     4.05153   0.71367   25.83684 
 6                     3.56075   2.05482   28.30711 
 6                     4.04836   0.71471   28.30711 
 6                     3.55972   2.05334   30.77027 
 6                     4.04662   0.71518   30.77027 
 6                     3.56339   2.05888   33.23953 
 6                     4.05299   0.7133    33.23953 
 6                     3.55953   2.05219   35.70764 
 6                     4.04571   0.71598   35.70764 
 6                     3.55597   2.05324   38.16979 
 6                     4.04363   0.71291   38.16979 
 6                     3.55304   2.05695   40.64915 
 6                     4.04375   0.70823   40.64915 
 6                     3.68871   2.07266   43.07183 
 6                     4.15788   0.78339   43.07182 
 6                     2.15792   3.63897  -0.03043 
 6                     3.20891   2.75707  -0.03044 
 6                     2.04841   3.55762   2.39227 
 6                     3.1479    2.63513   2.39227 
 6                     2.05284   3.55593   4.87164 
 6                     3.14548   2.63919   4.87164 
 6                     2.05648   3.55685   7.3338 
 6                     3.14576   2.64291   7.3338 
 6                     2.05649   3.56461   9.80192 
 6                     3.15341   2.64426   9.80192 
 6                     2.05609   3.55798   12.27118 
 6                     3.14697   2.64271   12.27118 
 6                     2.05625   3.55978   14.73434 
 6                     3.14872   2.64318   14.73434 
 6                     2.05636   3.56311   17.20462 
 6                     3.15198   2.64386   17.20462 
 6                     2.05613   3.55703   19.67084 
 6                     3.14604   2.64257   19.67084 
 6                     2.05633   3.56216   22.13583 
 6                     3.15105   2.64366   22.13583 
 6                     2.0563    3.56105   24.60646 
 6                     3.14996   2.64344   24.60646 
 6                     2.05612   3.55734   27.07043 
 6                     3.14635   2.64262   27.07043 
 6                     2.05636   3.56383   29.53804 
 6                     3.15268   2.64399   29.53804 
 6                     2.05621   3.55833   32.00757 
 6                     3.1473    2.64289   32.00757 
 6                     2.05645   3.55968   34.47015 
 6                     3.14859   2.64336   34.47014 
 6                     2.05579   3.56365   36.94145 
 6                     3.15261   2.64341   36.94145 
 6                     2.04867   3.54144   39.40741 
 6                     3.13201   2.63256   39.40741 
 6                     2.07736   3.59993   41.87478 
 6                     3.18459   2.67096   41.87478 
 6                    -0.00105   4.15615   1.16668 
 6                     1.4223    3.90515   1.16665 
 6                     0.00337   4.09111   3.63404 
 6                     1.39598   3.84559   3.63402 
 6                    -0.00153   4.11396   6.1 
 6                     1.40844   3.86538   6.09999 
 6                     0.00104   4.11087   8.57131 
 6                     1.405     3.86336   8.5713 
 6                     0.00152   4.10959   11.03389 
 6                     1.40414   3.86232   11.03388 
 6                    -0.00109   4.11443   13.50342 
 6                     1.40826   3.86598   13.50342 
 6                     0.00195   4.10869   15.97103 
 6                     1.40345   3.86162   15.97103 
 6                     0.00025   4.11199   18.435 
 6                     1.40618   3.86414   18.435 
 6                    -0.00028   4.11297   20.90563 
 6                     1.40701   3.86488   20.90563 
 6                     0.0021    4.10841   23.37063 
 6                     1.40321   3.86141   23.37062 
 6                    -0.00073   4.1138    25.83684 
 6                     1.40771   3.86551   25.83684 
 6                     0.00084   4.11085   28.30711 
 6                     1.40522   3.86328   28.30711 
 6                     0.0016    4.10921   30.77028 
 6                     1.40394   3.862     30.77027 
 6                    -0.00136   4.11516   33.23954 
 6                     1.40876   3.86658   33.23953 
 6                     0.00252   4.10844   35.70765 
 6                     1.40282   3.8616    35.70764 
 6                    -0.00015   4.10583   38.16981 
 6                     1.40446   3.85826   38.1698 
 6                    -0.00478   4.10512   40.64915 
 6                     1.40864   3.85603   40.64915 
 6                     0.04948   4.2307    43.07182 
 6                     1.40062   3.99247   43.07182 
 6                    -2.07266   3.68871  -0.03037 
 6                    -0.78339   4.15788  -0.03036 
 6                    -2.05695   3.55304   2.39231 
 6                    -0.70823   4.04375   2.39231 
 6                    -2.05324   3.55597   4.87167 
 6                    -0.71291   4.04363   4.87167 
 6                    -2.05219   3.55953   7.33382 
 6                    -0.71598   4.04571   7.33382 
 6                    -2.05888   3.56339   9.80193 
 6                    -0.7133    4.05299   9.80193 
 6                    -2.05334   3.55972   12.27119 
 6                    -0.71518   4.04662   12.27119 
 6                    -2.05482   3.56075   14.73435 
 6                    -0.71471   4.04836   14.73435 
 6                    -2.05765   3.56251   17.20462 
 6                    -0.71367   4.05153   17.20462 
 6                    -2.0525    3.55927   19.67084 
 6                    -0.71553   4.04573   19.67084 
 6                    -2.05685   3.56202   22.13583 
 6                    -0.71396   4.05063   22.13583 
 6                    -2.0559    3.56143   24.60646 
 6                    -0.71432   4.04958   24.60646 
 6                    -2.05278   3.55943   27.07043 
 6                    -0.71542   4.04603   27.07043 
 6                    -2.05827   3.56288   29.53804 
 6                    -0.71343   4.0522    29.53804 
 6                    -2.05359   3.55998   32.00758 
 6                    -0.71517   4.04698   32.00758 
 6                    -2.05463   3.56085   34.47016 
 6                    -0.71493   4.04831   34.47016 
 6                    -2.05838   3.56223   36.94147 
 6                    -0.71294   4.05178   36.94147 
 6                    -2.04269   3.54489   39.40745 
 6                    -0.71382   4.02841   39.40743 
 6                    -2.07887   3.59885   41.87483 
 6                    -0.72073   4.09319   41.8748 
 6                    -3.59993   2.07736   1.16668 
 6                    -2.67096   3.18459   1.16668 
 6                    -3.54144   2.04867   3.63405 
 6                    -2.63256   3.13201   3.63405 
 6                    -3.56365   2.05579   6.10001 
 6                    -2.64341   3.15261   6.10001 
 6                    -3.55968   2.05645   8.57132 
 6                    -2.64336   3.14859   8.57132 
 6                    -3.55833   2.05621   11.03389 
 6                    -2.64289   3.1473    11.03389 
 6                    -3.56383   2.05636   13.50342 
 6                    -2.64399   3.15268   13.50343 
 6                    -3.55734   2.05612   15.97103 
 6                    -2.64262   3.14635   15.97103 
 6                    -3.56105   2.0563    18.435 
 6                    -2.64344   3.14996   18.435 
 6                    -3.56216   2.05633   20.90563 
 6                    -2.64366   3.15105   20.90563 
 6                    -3.55703   2.05613   23.37062 
 6                    -2.64257   3.14604   23.37062 
 6                    -3.56311   2.05636   25.83684 
 6                    -2.64386   3.15198   25.83684 
 6                    -3.55978   2.05625   28.30711 
 6                    -2.64318   3.14872   28.30712 
 6                    -3.55798   2.05609   30.77028 
 6                    -2.64271   3.14697   30.77028 
 6                    -3.56461   2.05649   33.23954 
 6                    -2.64426   3.15341   33.23954 
 6                    -3.55685   2.05648   35.70766 
 6                    -2.64291   3.14576   35.70766 
 6                    -3.55593   2.05284   38.16982 
 6                    -2.63919   3.14548   38.16982 
 6                    -3.55762   2.04841   40.64919 
 6                    -2.63513   3.1479    40.64919 
 6                    -3.63897   2.15792   43.07189 
 6                    -2.75707   3.20891   43.0719 
 6                    -4.2307    0.04948  -0.03036 
 6                    -3.99247   1.40062  -0.03036 
 6                    -4.10512  -0.00478   2.39231 
 6                    -3.85603   1.40864   2.39231 
 6                    -4.10583  -0.00015   4.87165 
 6                    -3.85826   1.40446   4.87166 
 6                    -4.10844   0.00252   7.33381 
 6                    -3.8616    1.40282   7.33382 
 6                    -4.11516  -0.00136   9.80193 
 6                    -3.86658   1.40876   9.80193 
 6                    -4.10921   0.0016    12.27118 
 6                    -3.862     1.40394   12.27119 
 6                    -4.11085   0.00084   14.73435 
 6                    -3.86328   1.40522   14.73435 
 6                    -4.1138   -0.00073   17.20462 
 6                    -3.86551   1.40771   17.20462 
 6                    -4.10841   0.0021    19.67084 
 6                    -3.86141   1.40321   19.67084 
 6                    -4.11297  -0.00028   22.13583 
 6                    -3.86488   1.40701   22.13583 
 6                    -4.11199   0.00025   24.60646 
 6                    -3.86414   1.40618   24.60646 
 6                    -4.10869   0.00194   27.07043 
 6                    -3.86162   1.40345   27.07043 
 6                    -4.11443  -0.00109   29.53804 
 6                    -3.86598   1.40826   29.53804 
 6                    -4.10959   0.00152   32.00757 
 6                    -3.86232   1.40414   32.00758 
 6                    -4.11087   0.00104   34.47015 
 6                    -3.86336   1.405     34.47016 
 6                    -4.11396  -0.00153   36.94146 
 6                    -3.86538   1.40844   36.94147 
 6                    -4.09111   0.00337   39.40742 
 6                    -3.84559   1.39598   39.40744 
 6                    -4.15615  -0.00105   41.87478 
 6                    -3.90515   1.4223    41.87481 
 6                    -3.59885  -2.07887   1.16664 
 6                    -4.09319  -0.72073   1.16666 
 6                    -3.54489  -2.04269   3.63401 
 6                    -4.02841  -0.71382   3.63403 
 6                    -3.56223  -2.05838   6.09999 
 6                    -4.05178  -0.71294   6.09999 
 6                    -3.56085  -2.05463   8.5713 
 6                    -4.04831  -0.71493   8.5713 
 6                    -3.55998  -2.05359   11.03388 
 6                    -4.04698  -0.71517   11.03388 
 6                    -3.56288  -2.05827   13.50342 
 6                    -4.0522   -0.71343   13.50342 
 6                    -3.55943  -2.05278   15.97103 
 6                    -4.04603  -0.71542   15.97103 
 6                    -3.56143  -2.0559    18.435 
 6                    -4.04958  -0.71432   18.435 
 6                    -3.56202  -2.05685   20.90563 
 6                    -4.05063  -0.71396   20.90563 
 6                    -3.55927  -2.0525    23.37062 
 6                    -4.04573  -0.71553   23.37062 
 6                    -3.56251  -2.05765   25.83684 
 6                    -4.05153  -0.71367   25.83684 
 6                    -3.56075  -2.05482   28.30711 
 6                    -4.04836  -0.71471   28.30711 
 6                    -3.55972  -2.05334   30.77027 
 6                    -4.04662  -0.71518   30.77027 
 6                    -3.56339  -2.05888   33.23953 
 6                    -4.05299  -0.7133    33.23953 
 6                    -3.55953  -2.05219   35.70764 
 6                    -4.04571  -0.71598   35.70764 
 6                    -3.55597  -2.05324   38.16979 
 6                    -4.04363  -0.71291   38.16979 
 6                    -3.55304  -2.05695   40.64915 
 6                    -4.04375  -0.70823   40.64915 
 6                    -3.68871  -2.07266   43.07183 
 6                    -4.15788  -0.78339   43.07182 
 6                    -2.15792  -3.63897  -0.03043 
 6                    -3.20891  -2.75707  -0.03044 
 6                    -2.04841  -3.55762   2.39227 
 6                    -3.1479   -2.63513   2.39227 
 6                    -2.05284  -3.55593   4.87164 
 6                    -3.14548  -2.63919   4.87164 
 6                    -2.05648  -3.55685   7.3338 
 6                    -3.14576  -2.64291   7.3338 
 6                    -2.05649  -3.56461   9.80192 
 6                    -3.15341  -2.64426   9.80192 
 6                    -2.05609  -3.55798   12.27118 
 6                    -3.14697  -2.64271   12.27118 
 6                    -2.05625  -3.55978   14.73434 
 6                    -3.14872  -2.64318   14.73434 
 6                    -2.05636  -3.56311   17.20462 
 6                    -3.15198  -2.64386   17.20462 
 6                    -2.05613  -3.55703   19.67084 
 6                    -3.14604  -2.64257   19.67084 
 6                    -2.05633  -3.56216   22.13583 
 6                    -3.15105  -2.64366   22.13583 
 6                    -2.0563   -3.56105   24.60646 
 6                    -3.14996  -2.64344   24.60646 
 6                    -2.05612  -3.55734   27.07043 
 6                    -3.14635  -2.64262   27.07043 
 6                    -2.05636  -3.56383   29.53804 
 6                    -3.15268  -2.64399   29.53804 
 6                    -2.05621  -3.55833   32.00757 
 6                    -3.1473   -2.64289   32.00757 
 6                    -2.05645  -3.55968   34.47015 
 6                    -3.14859  -2.64336   34.47014 
 6                    -2.05579  -3.56365   36.94145 
 6                    -3.15261  -2.64341   36.94145 
 6                    -2.04867  -3.54144   39.40741 
 6                    -3.13201  -2.63256   39.40741 
 6                    -2.07736  -3.59993   41.87478 
 6                    -3.18459  -2.67096   41.87478 
 6                     0.00105  -4.15615   1.16668 
 6                    -1.4223   -3.90515   1.16665 
 6                    -0.00337  -4.09111   3.63404 
 6                    -1.39598  -3.84559   3.63402 
 6                     0.00153  -4.11396   6.1 
 6                    -1.40844  -3.86538   6.09999 
 6                    -0.00104  -4.11087   8.57131 
 6                    -1.405    -3.86336   8.5713 
 6                    -0.00152  -4.10959   11.03389 
 6                    -1.40414  -3.86232   11.03388 
 6                     0.00109  -4.11443   13.50342 
 6                    -1.40826  -3.86598   13.50342 
 6                    -0.00194  -4.10869   15.97103 
 6                    -1.40345  -3.86162   15.97103 
 6                    -0.00025  -4.11199   18.435 
 6                    -1.40618  -3.86414   18.435 
 6                     0.00028  -4.11297   20.90563 
 6                    -1.40701  -3.86488   20.90563 
 6                    -0.0021   -4.10841   23.37063 
 6                    -1.40321  -3.86141   23.37062 
 6                     0.00073  -4.1138    25.83684 
 6                    -1.40771  -3.86551   25.83684 
 6                    -0.00084  -4.11085   28.30711 
 6                    -1.40522  -3.86328   28.30711 
 6                    -0.0016   -4.10921   30.77028 
 6                    -1.40394  -3.862     30.77027 
 6                     0.00136  -4.11516   33.23954 
 6                    -1.40876  -3.86658   33.23953 
 6                    -0.00252  -4.10844   35.70765 
 6                    -1.40282  -3.8616    35.70764 
 6                     0.00015  -4.10583   38.16981 
 6                    -1.40446  -3.85826   38.1698 
 6                     0.00478  -4.10512   40.64915 
 6                    -1.40864  -3.85603   40.64915 
 6                    -0.04948  -4.2307    43.07182 
 6                    -1.40062  -3.99247   43.07182 
 6                     2.07266  -3.68871  -0.03037 
 6                     0.78339  -4.15788  -0.03036 
 6                     2.05695  -3.55304   2.39231 
 6                     0.70823  -4.04375   2.39231 
 6                     2.05324  -3.55597   4.87167 
 6                     0.71291  -4.04363   4.87167 
 6                     2.05219  -3.55953   7.33382 
 6                     0.71598  -4.04571   7.33382 
 6                     2.05888  -3.56339   9.80193 
 6                     0.71331  -4.05299   9.80193 
 6                     2.05334  -3.55972   12.27119 
 6                     0.71518  -4.04662   12.27119 
 6                     2.05482  -3.56075   14.73435 
 6                     0.71471  -4.04836   14.73435 
 6                     2.05765  -3.56251   17.20462 
 6                     0.71367  -4.05153   17.20462 
 6                     2.0525   -3.55927   19.67084 
 6                     0.71553  -4.04573   19.67084 
 6                     2.05685  -3.56202   22.13583 
 6                     0.71396  -4.05063   22.13583 
 6                     2.0559   -3.56143   24.60646 
 6                     0.71432  -4.04958   24.60646 
 6                     2.05278  -3.55943   27.07043 
 6                     0.71542  -4.04603   27.07043 
 6                     2.05828  -3.56288   29.53804 
 6                     0.71343  -4.0522    29.53804 
 6                     2.05359  -3.55998   32.00758 
 6                     0.71517  -4.04698   32.00758 
 6                     2.05463  -3.56085   34.47016 
 6                     0.71493  -4.04831   34.47016 
 6                     2.05838  -3.56223   36.94147 
 6                     0.71294  -4.05178   36.94147 
 6                     2.04269  -3.54489   39.40745 
 6                     0.71382  -4.02841   39.40743 
 6                     2.07887  -3.59885   41.87483 
 6                     0.72073  -4.09319   41.8748 
 6                     3.59993  -2.07736   1.16668 
 6                     2.67096  -3.18459   1.16668 
 6                     3.54144  -2.04867   3.63405 
 6                     2.63256  -3.13201   3.63405 
 6                     3.56365  -2.05579   6.10001 
 6                     2.64341  -3.15261   6.10001 
 6                     3.55968  -2.05645   8.57131 
 6                     2.64336  -3.14859   8.57132 
 6                     3.55833  -2.05621   11.03389 
 6                     2.64289  -3.1473    11.03389 
 6                     3.56383  -2.05636   13.50342 
 6                     2.64399  -3.15268   13.50343 
 6                     3.55735  -2.05612   15.97103 
 6                     2.64262  -3.14635   15.97103 
 6                     3.56105  -2.0563    18.435 
 6                     2.64344  -3.14996   18.435 
 6                     3.56216  -2.05633   20.90563 
 6                     2.64366  -3.15105   20.90563 
 6                     3.55703  -2.05613   23.37062 
 6                     2.64257  -3.14604   23.37062 
 6                     3.56311  -2.05636   25.83684 
 6                     2.64386  -3.15198   25.83684 
 6                     3.55978  -2.05625   28.30711 
 6                     2.64318  -3.14872   28.30712 
 6                     3.55798  -2.05609   30.77028 
 6                     2.64271  -3.14697   30.77028 
 6                     3.56461  -2.05649   33.23954 
 6                     2.64426  -3.15341   33.23954 
 6                     3.55685  -2.05648   35.70766 
 6                     2.64291  -3.14576   35.70766 
 6                     3.55593  -2.05284   38.16982 
 6                     2.63919  -3.14548   38.16982 
 6                     3.55762  -2.04841   40.64919 
 6                     2.63513  -3.1479    40.64919 
 6                     3.63897  -2.15792   43.07189 
 6                     2.75707  -3.20891   43.0719 
 6                     4.2307   -0.04948  -0.03036 
 6                     3.99247  -1.40062  -0.03036 
 6                     4.10513   0.00478   2.39231 
 6                     3.85603  -1.40864   2.39231 
 6                     4.10583   0.00015   4.87165 
 6                     3.85826  -1.40446   4.87166 
 6                     4.10844  -0.00252   7.33381 
 6                     3.8616   -1.40282   7.33382 
 6                     4.11516   0.00136   9.80193 
 6                     3.86658  -1.40876   9.80193 
 6                     4.10921  -0.0016    12.27118 
 6                     3.862    -1.40394   12.27119 
 6                     4.11085  -0.00084   14.73435 
 6                     3.86328  -1.40522   14.73435 
 6                     4.1138    0.00073   17.20462 
 6                     3.86551  -1.40771   17.20462 
 6                     4.10841  -0.0021    19.67084 
 6                     3.86141  -1.40321   19.67084 
 6                     4.11297   0.00028   22.13583 
 6                     3.86488  -1.40701   22.13583 
 6                     4.11199  -0.00025   24.60646 
 6                     3.86414  -1.40618   24.60646 
 6                     4.10869  -0.00194   27.07043 
 6                     3.86162  -1.40345   27.07043 
 6                     4.11443   0.00109   29.53804 
 6                     3.86598  -1.40826   29.53804 
 6                     4.10959  -0.00152   32.00757 
 6                     3.86232  -1.40414   32.00758 
 6                     4.11087  -0.00104   34.47015 
 6                     3.86336  -1.405     34.47016 
 6                     4.11396   0.00153   36.94146 
 6                     3.86538  -1.40844   36.94147 
 6                     4.09112  -0.00337   39.40742 
 6                     3.84559  -1.39598   39.40744 
 6                     4.15615   0.00105   41.87478 
 6                     3.90515  -1.4223    41.87481 
 1                     3.58771   2.59219   44.01935 
 1                     4.41435   0.32042   44.01933 
 1                     1.81056   4.03823  -0.97797 
 1                     3.66243   2.48433  -0.97798 
 1                    -0.45092   4.40303   44.01935 
 1                     1.92978   3.98319   44.01935 
 1                    -2.59219   3.58771  -0.97789 
 1                    -0.32042   4.41435  -0.97788 
 1                    -4.03823   1.81056   44.01943 
 1                    -2.48432   3.66243   44.01944 
 1                    -4.40303  -0.45092  -0.97789 
 1                    -3.98319   1.92978  -0.97789 
 1                    -3.58771  -2.59219   44.01935 
 1                    -4.41435  -0.32042   44.01933 
 1                    -1.81056  -4.03823  -0.97797 
 1                    -3.66243  -2.48432  -0.97798 
 1                     0.45092  -4.40303   44.01935 
 1                    -1.92978  -3.98319   44.01935 
 1                     2.59219  -3.58771  -0.97789 
 1                     0.32042  -4.41435  -0.97788 
 1                     4.03823  -1.81056   44.01943 
 1                     2.48433  -3.66243   44.01944 
 1                     4.40303   0.45092  -0.97789 
 1                     3.98319  -1.92978  -0.97789 
 
 Symmetry turned off by external request.
 This structure is nearly, but not quite of a higher symmetry.
 Consider Symm=Loose if the higher symmetry is desired.
 Stoichiometry    C432H24
 Framework group  C2[X(C432H24)]
 Deg. of freedom   682
 Full point group                 C2      NOp   2
                          Input orientation:                          
 ---------------------------------------------------------------------
 Center     Atomic      Atomic             Coordinates (Angstroms)
 Number     Number       Type             X           Y           Z
 ---------------------------------------------------------------------
      1          6           0        3.598849    2.078874    1.166635
      2          6           0        4.093188    0.720731    1.166660
      3          6           0        3.544890    2.042692    3.634014
      4          6           0        4.028412    0.713820    3.634029
      5          6           0        3.562226    2.058376    6.099985
      6          6           0        4.051783    0.712941    6.099993
      7          6           0        3.560846    2.054630    8.571298
      8          6           0        4.048314    0.714929    8.571304
      9          6           0        3.559984    2.053590   11.033878
     10          6           0        4.046980    0.715169   11.033880
     11          6           0        3.562875    2.058274   13.503418
     12          6           0        4.052206    0.713429   13.503420
     13          6           0        3.559426    2.052783   15.971030
     14          6           0        4.046033    0.715421   15.971031
     15          6           0        3.561434    2.055901   18.434999
     16          6           0        4.049577    0.714315   18.434999
     17          6           0        3.562019    2.056846   20.905628
     18          6           0        4.050634    0.713964   20.905628
     19          6           0        3.559266    2.052503   23.370624
     20          6           0        4.045735    0.715525   23.370624
     21          6           0        3.562515    2.057648   25.836838
     22          6           0        4.051532    0.713667   25.836838
     23          6           0        3.560753    2.054817   28.307111
     24          6           0        4.048362    0.714710   28.307113
     25          6           0        3.559717    2.053341   30.770271
     26          6           0        4.046616    0.715184   30.770273
     27          6           0        3.563392    2.058884   33.239526
     28          6           0        4.052991    0.713304   33.239530
     29          6           0        3.559527    2.052185   35.707640
     30          6           0        4.045712    0.715977   35.707645
     31          6           0        3.555973    2.053238   38.169790
     32          6           0        4.043628    0.712911   38.169794
     33          6           0        3.553039    2.056950   40.649147
     34          6           0        4.043754    0.708226   40.649150
     35          6           0        3.688708    2.072657   43.071831
     36          6           0        4.157878    0.783386   43.071821
     37          6           0        2.157923    3.638970   -0.030428
     38          6           0        3.208914    2.757065   -0.030436
     39          6           0        2.048410    3.557618    2.392271
     40          6           0        3.147897    2.635132    2.392269
     41          6           0        2.052842    3.555928    4.871640
     42          6           0        3.145477    2.639187    4.871639
     43          6           0        2.056479    3.556846    7.333799
     44          6           0        3.145764    2.642912    7.333798
     45          6           0        2.056489    3.564605    9.801920
     46          6           0        3.153407    2.644257    9.801919
     47          6           0        2.056092    3.557977   12.271181
     48          6           0        3.146967    2.642710   12.271180
     49          6           0        2.056254    3.559778   14.734344
     50          6           0        3.148717    2.643177   14.734344
     51          6           0        2.056363    3.563112   17.204621
     52          6           0        3.151979    2.643859   17.204620
     53          6           0        2.056126    3.557029   19.670836
     54          6           0        3.146041    2.642570   19.670835
     55          6           0        2.056334    3.562164   22.135832
     56          6           0        3.151054    2.643663   22.135832
     57          6           0        2.056299    3.561050   24.606460
     58          6           0        3.149965    2.643437   24.606460
     59          6           0        2.056122    3.557344   27.070427
     60          6           0        3.146349    2.642624   27.070426
     61          6           0        2.056361    3.563828   29.538037
     62          6           0        3.152683    2.643986   29.538035
     63          6           0        2.056209    3.558332   32.007573
     64          6           0        3.147303    2.642889   32.007571
     65          6           0        2.056449    3.559682   34.470145
     66          6           0        3.148588    2.643363   34.470143
     67          6           0        2.055790    3.563646   36.941451
     68          6           0        3.152606    2.643410   36.941446
     69          6           0        2.048666    3.541436   39.407410
     70          6           0        3.132008    2.632558   39.407406
     71          6           0        2.077365    3.599934   41.874781
     72          6           0        3.184592    2.670957   41.874781
     73          6           0       -0.001050    4.156153    1.166681
     74          6           0        1.422296    3.905146    1.166650
     75          6           0        0.003367    4.091114    3.634039
     76          6           0        1.395977    3.845593    3.634022
     77          6           0       -0.001526    4.113956    6.100001
     78          6           0        1.408440    3.865382    6.099990
     79          6           0        0.001043    4.110870    8.571307
     80          6           0        1.405002    3.863361    8.571301
     81          6           0        0.001520    4.109586   11.033886
     82          6           0        1.404137    3.862320   11.033881
     83          6           0       -0.001089    4.114427   13.503422
     84          6           0        1.408258    3.865976   13.503419
     85          6           0        0.001945    4.108688   15.971032
     86          6           0        1.403450    3.861620   15.971031
     87          6           0        0.000246    4.111987   18.435001
     88          6           0        1.406178    3.864137   18.435000
     89          6           0       -0.000281    4.112967   20.905627
     90          6           0        1.407008    3.864877   20.905627
     91          6           0        0.002103    4.108411   23.370625
     92          6           0        1.403207    3.861412   23.370624
     93          6           0       -0.000731    4.113799   25.836840
     94          6           0        1.407710    3.865505   25.836839
     95          6           0        0.000840    4.110855   28.307113
     96          6           0        1.405223    3.863278   28.307111
     97          6           0        0.001602    4.109213   30.770278
     98          6           0        1.403943    3.862000   30.770274
     99          6           0       -0.001357    4.115161   33.239535
    100          6           0        1.408761    3.866581   33.239529
    101          6           0        0.002524    4.108437   35.707652
    102          6           0        1.402824    3.861602   35.707644
    103          6           0       -0.000145    4.105829   38.169809
    104          6           0        1.404463    3.858257   38.169798
    105          6           0       -0.004781    4.105124   40.649153
    106          6           0        1.408635    3.856026   40.649147
    107          6           0        0.049477    4.230696   43.071821
    108          6           0        1.400621    3.992473   43.071816
    109          6           0       -2.072657    3.688708   -0.030371
    110          6           0       -0.783386    4.157878   -0.030361
    111          6           0       -2.056950    3.553039    2.392313
    112          6           0       -0.708226    4.043753    2.392310
    113          6           0       -2.053237    3.555973    4.871670
    114          6           0       -0.712911    4.043628    4.871666
    115          6           0       -2.052185    3.559526    7.333820
    116          6           0       -0.715977    4.045711    7.333815
    117          6           0       -2.058884    3.563391    9.801933
    118          6           0       -0.713304    4.052991    9.801930
    119          6           0       -2.053340    3.559716   12.271188
    120          6           0       -0.715183    4.046616   12.271187
    121          6           0       -2.054817    3.560753   14.734349
    122          6           0       -0.714710    4.048362   14.734347
    123          6           0       -2.057647    3.562514   17.204622
    124          6           0       -0.713667    4.051531   17.204622
    125          6           0       -2.052503    3.559266   19.670836
    126          6           0       -0.715525    4.045735   19.670836
    127          6           0       -2.056845    3.562019   22.135832
    128          6           0       -0.713963    4.050634   22.135832
    129          6           0       -2.055901    3.561434   24.606461
    130          6           0       -0.714315    4.049577   24.606461
    131          6           0       -2.052782    3.559426   27.070430
    132          6           0       -0.715421    4.046033   27.070429
    133          6           0       -2.058274    3.562875   29.538042
    134          6           0       -0.713429    4.052205   29.538040
    135          6           0       -2.053590    3.559983   32.007582
    136          6           0       -0.715169    4.046980   32.007580
    137          6           0       -2.054630    3.560846   34.470162
    138          6           0       -0.714929    4.048314   34.470156
    139          6           0       -2.058376    3.562225   36.941475
    140          6           0       -0.712941    4.051783   36.941467
    141          6           0       -2.042691    3.544890   39.407445
    142          6           0       -0.713820    4.028412   39.407431
    143          6           0       -2.078873    3.598849   41.874825
    144          6           0       -0.720731    4.093188   41.874800
    145          6           0       -3.599934    2.077365    1.166679
    146          6           0       -2.670957    3.184591    1.166679
    147          6           0       -3.541435    2.048666    3.634050
    148          6           0       -2.632558    3.132008    3.634054
    149          6           0       -3.563646    2.055790    6.100009
    150          6           0       -2.643410    3.152606    6.100014
    151          6           0       -3.559682    2.056449    8.571315
    152          6           0       -2.643363    3.148588    8.571317
    153          6           0       -3.558332    2.056209   11.033887
    154          6           0       -2.642888    3.147303   11.033889
    155          6           0       -3.563828    2.056361   13.503423
    156          6           0       -2.643986    3.152682   13.503425
    157          6           0       -3.557344    2.056122   15.971033
    158          6           0       -2.642623    3.146349   15.971033
    159          6           0       -3.561050    2.056299   18.434999
    160          6           0       -2.643437    3.149965   18.435000
    161          6           0       -3.562163    2.056333   20.905628
    162          6           0       -2.643663    3.151054   20.905628
    163          6           0       -3.557029    2.056126   23.370624
    164          6           0       -2.642569    3.146041   23.370624
    165          6           0       -3.563111    2.056363   25.836839
    166          6           0       -2.643859    3.151979   25.836839
    167          6           0       -3.559778    2.056254   28.307115
    168          6           0       -2.643177    3.148716   28.307116
    169          6           0       -3.557977    2.056091   30.770279
    170          6           0       -2.642710    3.146967   30.770280
    171          6           0       -3.564605    2.056489   33.239540
    172          6           0       -2.644257    3.153407   33.239541
    173          6           0       -3.556845    2.056479   35.707661
    174          6           0       -2.642912    3.145764   35.707662
    175          6           0       -3.555928    2.052841   38.169820
    176          6           0       -2.639187    3.145476   38.169821
    177          6           0       -3.557618    2.048410   40.649189
    178          6           0       -2.635131    3.147896   40.649191
    179          6           0       -3.638970    2.157923   43.071888
    180          6           0       -2.757065    3.208914   43.071896
    181          6           0       -4.230696    0.049477   -0.030361
    182          6           0       -3.992473    1.400621   -0.030356
    183          6           0       -4.105124   -0.004781    2.392307
    184          6           0       -3.856026    1.408635    2.392313
    185          6           0       -4.105829   -0.000145    4.871651
    186          6           0       -3.858257    1.404463    4.871662
    187          6           0       -4.108437    0.002524    7.333808
    188          6           0       -3.861602    1.402824    7.333816
    189          6           0       -4.115160   -0.001357    9.801925
    190          6           0       -3.866581    1.408761    9.801931
    191          6           0       -4.109213    0.001602   12.271182
    192          6           0       -3.861999    1.403942   12.271186
    193          6           0       -4.110854    0.000840   14.734347
    194          6           0       -3.863278    1.405222   14.734348
    195          6           0       -4.113799   -0.000731   17.204620
    196          6           0       -3.865505    1.407709   17.204621
    197          6           0       -4.108411    0.002102   19.670835
    198          6           0       -3.861412    1.403206   19.670836
    199          6           0       -4.112967   -0.000281   22.135833
    200          6           0       -3.864877    1.407008   22.135833
    201          6           0       -4.111986    0.000246   24.606459
    202          6           0       -3.864137    1.406177   24.606459
    203          6           0       -4.108688    0.001944   27.070428
    204          6           0       -3.861620    1.403450   27.070429
    205          6           0       -4.114427   -0.001089   29.538038
    206          6           0       -3.865975    1.408257   29.538040
    207          6           0       -4.109586    0.001520   32.007574
    208          6           0       -3.862320    1.404137   32.007578
    209          6           0       -4.110870    0.001043   34.470153
    210          6           0       -3.863361    1.405002   34.470159
    211          6           0       -4.113956   -0.001526   36.941459
    212          6           0       -3.865381    1.408440   36.941470
    213          6           0       -4.091114    0.003367   39.407421
    214          6           0       -3.845593    1.395977   39.407438
    215          6           0       -4.156153   -0.001050   41.874779
    216          6           0       -3.905145    1.422296   41.874810
    217          6           0       -3.598849   -2.078874    1.166635
    218          6           0       -4.093187   -0.720731    1.166660
    219          6           0       -3.544890   -2.042692    3.634014
    220          6           0       -4.028411   -0.713820    3.634029
    221          6           0       -3.562225   -2.058376    6.099985
    222          6           0       -4.051782   -0.712941    6.099993
    223          6           0       -3.560846   -2.054630    8.571298
    224          6           0       -4.048314   -0.714929    8.571304
    225          6           0       -3.559983   -2.053590   11.033878
    226          6           0       -4.046980   -0.715169   11.033880
    227          6           0       -3.562875   -2.058274   13.503418
    228          6           0       -4.052205   -0.713429   13.503420
    229          6           0       -3.559426   -2.052783   15.971030
    230          6           0       -4.046032   -0.715421   15.971031
    231          6           0       -3.561434   -2.055901   18.434999
    232          6           0       -4.049577   -0.714315   18.434999
    233          6           0       -3.562018   -2.056846   20.905628
    234          6           0       -4.050634   -0.713964   20.905628
    235          6           0       -3.559266   -2.052503   23.370624
    236          6           0       -4.045735   -0.715525   23.370624
    237          6           0       -3.562514   -2.057648   25.836838
    238          6           0       -4.051531   -0.713667   25.836838
    239          6           0       -3.560753   -2.054817   28.307111
    240          6           0       -4.048361   -0.714710   28.307113
    241          6           0       -3.559716   -2.053341   30.770271
    242          6           0       -4.046616   -0.715184   30.770273
    243          6           0       -3.563391   -2.058884   33.239526
    244          6           0       -4.052991   -0.713304   33.239530
    245          6           0       -3.559526   -2.052185   35.707639
    246          6           0       -4.045711   -0.715977   35.707645
    247          6           0       -3.555973   -2.053238   38.169790
    248          6           0       -4.043627   -0.712912   38.169794
    249          6           0       -3.553039   -2.056950   40.649147
    250          6           0       -4.043753   -0.708226   40.649150
    251          6           0       -3.688707   -2.072657   43.071831
    252          6           0       -4.157878   -0.783387   43.071821
    253          6           0       -2.157922   -3.638970   -0.030428
    254          6           0       -3.208914   -2.757065   -0.030436
    255          6           0       -2.048410   -3.557618    2.392271
    256          6           0       -3.147896   -2.635132    2.392269
    257          6           0       -2.052841   -3.555928    4.871640
    258          6           0       -3.145476   -2.639187    4.871639
    259          6           0       -2.056479   -3.556845    7.333799
    260          6           0       -3.145764   -2.642912    7.333798
    261          6           0       -2.056488   -3.564605    9.801920
    262          6           0       -3.153406   -2.644257    9.801919
    263          6           0       -2.056091   -3.557977   12.271181
    264          6           0       -3.146966   -2.642710   12.271180
    265          6           0       -2.056253   -3.559778   14.734344
    266          6           0       -3.148716   -2.643177   14.734344
    267          6           0       -2.056362   -3.563112   17.204621
    268          6           0       -3.151979   -2.643859   17.204620
    269          6           0       -2.056125   -3.557029   19.670836
    270          6           0       -3.146040   -2.642570   19.670835
    271          6           0       -2.056333   -3.562164   22.135832
    272          6           0       -3.151054   -2.643663   22.135831
    273          6           0       -2.056298   -3.561050   24.606460
    274          6           0       -3.149964   -2.643437   24.606460
    275          6           0       -2.056122   -3.557344   27.070427
    276          6           0       -3.146349   -2.642624   27.070426
    277          6           0       -2.056360   -3.563828   29.538036
    278          6           0       -3.152682   -2.643986   29.538035
    279          6           0       -2.056209   -3.558332   32.007573
    280          6           0       -3.147303   -2.642889   32.007571
    281          6           0       -2.056449   -3.559682   34.470145
    282          6           0       -3.148588   -2.643363   34.470143
    283          6           0       -2.055790   -3.563646   36.941451
    284          6           0       -3.152606   -2.643410   36.941446
    285          6           0       -2.048666   -3.541436   39.407410
    286          6           0       -3.132008   -2.632558   39.407406
    287          6           0       -2.077365   -3.599934   41.874781
    288          6           0       -3.184591   -2.670957   41.874781
    289          6           0        0.001051   -4.156153    1.166681
    290          6           0       -1.422296   -3.905145    1.166650
    291          6           0       -0.003367   -4.091114    3.634039
    292          6           0       -1.395977   -3.845593    3.634022
    293          6           0        0.001527   -4.113956    6.100001
    294          6           0       -1.408440   -3.865382    6.099990
    295          6           0       -0.001043   -4.110870    8.571307
    296          6           0       -1.405002   -3.863361    8.571301
    297          6           0       -0.001520   -4.109586   11.033886
    298          6           0       -1.404136   -3.862320   11.033881
    299          6           0        0.001089   -4.114427   13.503422
    300          6           0       -1.408257   -3.865976   13.503419
    301          6           0       -0.001944   -4.108688   15.971032
    302          6           0       -1.403450   -3.861620   15.971031
    303          6           0       -0.000246   -4.111987   18.435001
    304          6           0       -1.406177   -3.864137   18.435000
    305          6           0        0.000282   -4.112967   20.905627
    306          6           0       -1.407007   -3.864877   20.905627
    307          6           0       -0.002102   -4.108411   23.370625
    308          6           0       -1.403206   -3.861412   23.370624
    309          6           0        0.000732   -4.113799   25.836840
    310          6           0       -1.407709   -3.865505   25.836839
    311          6           0       -0.000840   -4.110855   28.307113
    312          6           0       -1.405222   -3.863278   28.307111
    313          6           0       -0.001602   -4.109213   30.770278
    314          6           0       -1.403942   -3.862000   30.770274
    315          6           0        0.001358   -4.115161   33.239535
    316          6           0       -1.408761   -3.866581   33.239529
    317          6           0       -0.002524   -4.108438   35.707652
    318          6           0       -1.402823   -3.861602   35.707644
    319          6           0        0.000145   -4.105829   38.169809
    320          6           0       -1.404463   -3.858257   38.169798
    321          6           0        0.004781   -4.105124   40.649153
    322          6           0       -1.408635   -3.856026   40.649147
    323          6           0       -0.049477   -4.230696   43.071821
    324          6           0       -1.400621   -3.992473   43.071816
    325          6           0        2.072657   -3.688708   -0.030371
    326          6           0        0.783387   -4.157878   -0.030361
    327          6           0        2.056950   -3.553039    2.392313
    328          6           0        0.708227   -4.043753    2.392310
    329          6           0        2.053238   -3.555973    4.871670
    330          6           0        0.712912   -4.043627    4.871666
    331          6           0        2.052185   -3.559526    7.333820
    332          6           0        0.715977   -4.045711    7.333815
    333          6           0        2.058884   -3.563391    9.801933
    334          6           0        0.713305   -4.052991    9.801930
    335          6           0        2.053341   -3.559716   12.271188
    336          6           0        0.715184   -4.046616   12.271187
    337          6           0        2.054817   -3.560753   14.734349
    338          6           0        0.714711   -4.048362   14.734347
    339          6           0        2.057648   -3.562514   17.204622
    340          6           0        0.713667   -4.051531   17.204622
    341          6           0        2.052504   -3.559266   19.670836
    342          6           0        0.715525   -4.045735   19.670836
    343          6           0        2.056846   -3.562019   22.135832
    344          6           0        0.713964   -4.050634   22.135832
    345          6           0        2.055902   -3.561434   24.606461
    346          6           0        0.714315   -4.049577   24.606461
    347          6           0        2.052783   -3.559426   27.070430
    348          6           0        0.715421   -4.046033   27.070429
    349          6           0        2.058275   -3.562875   29.538042
    350          6           0        0.713430   -4.052205   29.538040
    351          6           0        2.053590   -3.559983   32.007582
    352          6           0        0.715169   -4.046980   32.007580
    353          6           0        2.054630   -3.560846   34.470162
    354          6           0        0.714929   -4.048314   34.470156
    355          6           0        2.058377   -3.562226   36.941475
    356          6           0        0.712941   -4.051783   36.941467
    357          6           0        2.042692   -3.544890   39.407445
    358          6           0        0.713820   -4.028412   39.407431
    359          6           0        2.078874   -3.598849   41.874825
    360          6           0        0.720732   -4.093188   41.874800
    361          6           0        3.599934   -2.077365    1.166679
    362          6           0        2.670958   -3.184591    1.166679
    363          6           0        3.541436   -2.048666    3.634050
    364          6           0        2.632558   -3.132008    3.634054
    365          6           0        3.563647   -2.055790    6.100009
    366          6           0        2.643411   -3.152606    6.100014
    367          6           0        3.559682   -2.056449    8.571314
    368          6           0        2.643364   -3.148588    8.571317
    369          6           0        3.558332   -2.056209   11.033887
    370          6           0        2.642889   -3.147303   11.033889
    371          6           0        3.563828   -2.056361   13.503423
    372          6           0        2.643986   -3.152682   13.503425
    373          6           0        3.557345   -2.056122   15.971033
    374          6           0        2.642624   -3.146349   15.971033
    375          6           0        3.561051   -2.056299   18.434999
    376          6           0        2.643438   -3.149965   18.435000
    377          6           0        3.562164   -2.056333   20.905628
    378          6           0        2.643664   -3.151054   20.905628
    379          6           0        3.557029   -2.056126   23.370624
    380          6           0        2.642570   -3.146041   23.370624
    381          6           0        3.563112   -2.056363   25.836839
    382          6           0        2.643859   -3.151979   25.836839
    383          6           0        3.559779   -2.056254   28.307115
    384          6           0        2.643178   -3.148716   28.307116
    385          6           0        3.557977   -2.056091   30.770279
    386          6           0        2.642710   -3.146967   30.770280
    387          6           0        3.564606   -2.056489   33.239540
    388          6           0        2.644257   -3.153407   33.239541
    389          6           0        3.556846   -2.056479   35.707661
    390          6           0        2.642913   -3.145764   35.707662
    391          6           0        3.555928   -2.052841   38.169820
    392          6           0        2.639187   -3.145476   38.169821
    393          6           0        3.557618   -2.048410   40.649189
    394          6           0        2.635132   -3.147896   40.649191
    395          6           0        3.638970   -2.157923   43.071888
    396          6           0        2.757066   -3.208914   43.071896
    397          6           0        4.230696   -0.049477   -0.030361
    398          6           0        3.992474   -1.400621   -0.030356
    399          6           0        4.105125    0.004781    2.392307
    400          6           0        3.856026   -1.408635    2.392313
    401          6           0        4.105829    0.000145    4.871651
    402          6           0        3.858258   -1.404463    4.871662
    403          6           0        4.108438   -0.002524    7.333808
    404          6           0        3.861603   -1.402823    7.333816
    405          6           0        4.115161    0.001358    9.801925
    406          6           0        3.866581   -1.408761    9.801931
    407          6           0        4.109214   -0.001602   12.271182
    408          6           0        3.862000   -1.403942   12.271186
    409          6           0        4.110855   -0.000840   14.734347
    410          6           0        3.863278   -1.405222   14.734348
    411          6           0        4.113800    0.000731   17.204620
    412          6           0        3.865506   -1.407709   17.204621
    413          6           0        4.108412   -0.002102   19.670835
    414          6           0        3.861412   -1.403206   19.670836
    415          6           0        4.112967    0.000281   22.135833
    416          6           0        3.864877   -1.407008   22.135833
    417          6           0        4.111987   -0.000246   24.606459
    418          6           0        3.864138   -1.406177   24.606459
    419          6           0        4.108689   -0.001944   27.070428
    420          6           0        3.861621   -1.403450   27.070429
    421          6           0        4.114428    0.001089   29.538038
    422          6           0        3.865976   -1.408257   29.538040
    423          6           0        4.109587   -0.001520   32.007574
    424          6           0        3.862321   -1.404137   32.007578
    425          6           0        4.110870   -0.001043   34.470153
    426          6           0        3.863362   -1.405002   34.470159
    427          6           0        4.113957    0.001526   36.941459
    428          6           0        3.865382   -1.408440   36.941470
    429          6           0        4.091115   -0.003367   39.407421
    430          6           0        3.845593   -1.395977   39.407438
    431          6           0        4.156153    0.001050   41.874779
    432          6           0        3.905146   -1.422296   41.874810
    433          1           0        3.587710    2.592187   44.019353
    434          1           0        4.414354    0.320416   44.019335
    435          1           0        1.810561    4.038232   -0.977968
    436          1           0        3.662429    2.484325   -0.977981
    437          1           0       -0.450919    4.403028   44.019348
    438          1           0        1.929777    3.983192   44.019345
    439          1           0       -2.592187    3.587710   -0.977893
    440          1           0       -0.320416    4.414354   -0.977875
    441          1           0       -4.038232    1.810560   44.019428
    442          1           0       -2.484324    3.662429   44.019441
    443          1           0       -4.403028   -0.450919   -0.977888
    444          1           0       -3.983192    1.929777   -0.977885
    445          1           0       -3.587710   -2.592187   44.019353
    446          1           0       -4.414354   -0.320416   44.019335
    447          1           0       -1.810560   -4.038232   -0.977968
    448          1           0       -3.662428   -2.484324   -0.977981
    449          1           0        0.450919   -4.403028   44.019348
    450          1           0       -1.929777   -3.983193   44.019345
    451          1           0        2.592187   -3.587710   -0.977893
    452          1           0        0.320416   -4.414354   -0.977875
    453          1           0        4.038232   -1.810561   44.019428
    454          1           0        2.484325   -3.662429   44.019441
    455          1           0        4.403029    0.450919   -0.977888
    456          1           0        3.983193   -1.929777   -0.977885
 ---------------------------------------------------------------------
 Rotational constants (GHZ):           0.0057153           0.0005570           0.0005570
 Standard basis: 6-311G(d) (5D, 7F)
  7848 basis functions, 13944 primitive gaussians,  8280 cartesian basis functions
  1308 alpha electrons     1308 beta electrons
       nuclear repulsion energy    167706.4730987915 Hartrees.
 NAtoms=  456 NActive=  456 NUniq=  456 SFac= 1.00D+00 NAtFMM=   60 NAOKFM=T Big=T
 Integral buffers will be    131072 words long.
 Raffenetti 2 integral format.
 Two-electron integral symmetry is turned off.
 One-electron integrals computed using PRISM.
 NBasis=  7848 RedAO= T EigKep=  5.65D-06  NBF=  7848
 NBsUse=  7848 1.00D-06 EigRej= -1.00D+00 NBFU=  7848
 ExpMin= 1.03D-01 ExpMax= 4.56D+03 ExpMxC= 6.82D+02 IAcc=3 IRadAn=         5 AccDes= 0.00D+00
 Harris functional with IExCor=  402 and IRadAn=       5 diagonalized for initial guess.
 HarFok:  IExCor=  402 AccDes= 0.00D+00 IRadAn=         5 IDoV= 1 UseB2=F ITyADJ=14
 ICtDFT=  3500011 ScaDFX=  1.000000  1.000000  1.000000  1.000000
 FoFCou: FMM=F IPFlag=           0 FMFlag=      100000 FMFlg1=        2001
         NFxFlg=           0 DoJE=T BraDBF=F KetDBF=T FulRan=T
         wScrn=  0.000000 ICntrl=       500 IOpCl=  0 I1Cent=   200000004 NGrid=           0
         NMat0=    1 NMatS0=      1 NMatT0=    0 NMatD0=    1 NMtDS0=    0 NMtDT0=    0
 Symmetry not used in FoFCou.
 Requested convergence on RMS density matrix=1.00D-08 within 128 cycles.
 Requested convergence on MAX density matrix=1.00D-06.
 Requested convergence on             energy=1.00D-06.
 No special actions if energy rises.
 Integral accuracy reduced to 1.0D-05 until final iterations.
 Problem detected with inexpensive integrals.
 Switching to full accuracy and repeating last cycle.
 EnCoef did     5 forward-backward iterations
 SCF Done:  E(RB3LYP) =  -16481.8835059     A.U. after   17 cycles
            NFock= 17  Conv=0.72D-08     -V/T= 2.0042
 Hyperfine terms turned off by default for NAtoms > 100.

 **********************************************************************

            Population analysis using the SCF Density.

 **********************************************************************

 Alpha  occ. eigenvalues --  -10.21479 -10.21478 -10.21478 -10.21475 -10.21475
 Alpha  occ. eigenvalues --  -10.21474 -10.21474 -10.21474 -10.21471 -10.21470
 Alpha  occ. eigenvalues --  -10.21470 -10.21470 -10.21470 -10.21468 -10.21468
 Alpha  occ. eigenvalues --  -10.21466 -10.21466 -10.21464 -10.21463 -10.21463
 Alpha  occ. eigenvalues --  -10.21462 -10.21462 -10.21460 -10.21460 -10.21460
 Alpha  occ. eigenvalues --  -10.21459 -10.21459 -10.21459 -10.21459 -10.21459
 Alpha  occ. eigenvalues --  -10.21458 -10.21456 -10.21455 -10.21455 -10.21455
 Alpha  occ. eigenvalues --  -10.21455 -10.21454 -10.21454 -10.21452 -10.21452
 Alpha  occ. eigenvalues --  -10.21452 -10.21451 -10.21450 -10.21450 -10.21450
 Alpha  occ. eigenvalues --  -10.21450 -10.21449 -10.21449 -10.21449 -10.21448
 Alpha  occ. eigenvalues --  -10.21448 -10.21446 -10.21446 -10.21446 -10.21446
 Alpha  occ. eigenvalues --  -10.21446 -10.21445 -10.21445 -10.21443 -10.21443
 Alpha  occ. eigenvalues --  -10.21442 -10.21442 -10.21442 -10.21442 -10.21442
 Alpha  occ. eigenvalues --  -10.21442 -10.21442 -10.21441 -10.21441 -10.21440
 Alpha  occ. eigenvalues --  -10.21439 -10.21439 -10.21438 -10.21438 -10.21437
 Alpha  occ. eigenvalues --  -10.21437 -10.21436 -10.21435 -10.21433 -10.21433
 Alpha  occ. eigenvalues --  -10.21432 -10.21432 -10.21432 -10.21432 -10.21432
 Alpha  occ. eigenvalues --  -10.21432 -10.21431 -10.21431 -10.21430 -10.21429
 Alpha  occ. eigenvalues --  -10.21429 -10.21428 -10.21428 -10.21426 -10.21426
 Alpha  occ. eigenvalues --  -10.21423 -10.21422 -10.21420 -10.21420 -10.21420
 Alpha  occ. eigenvalues --  -10.21420 -10.21420 -10.21420 -10.21420 -10.21420
 Alpha  occ. eigenvalues --  -10.21419 -10.21419 -10.21416 -10.21416 -10.21413
 Alpha  occ. eigenvalues --  -10.21413 -10.21413 -10.21410 -10.21410 -10.21410
 Alpha  occ. eigenvalues --  -10.21410 -10.21409 -10.21409 -10.21409 -10.21409
 Alpha  occ. eigenvalues --  -10.21408 -10.21408 -10.21407 -10.21407 -10.21405
 Alpha  occ. eigenvalues --  -10.21405 -10.21404 -10.21401 -10.21401 -10.21401
 Alpha  occ. eigenvalues --  -10.21401 -10.21401 -10.21401 -10.21401 -10.21400
 Alpha  occ. eigenvalues --  -10.21400 -10.21399 -10.21399 -10.21398 -10.21398
 Alpha  occ. eigenvalues --  -10.21398 -10.21398 -10.21398 -10.21398 -10.21398
 Alpha  occ. eigenvalues --  -10.21397 -10.21397 -10.21397 -10.21395 -10.21395
 Alpha  occ. eigenvalues --  -10.21395 -10.21394 -10.21394 -10.21394 -10.21394
 Alpha  occ. eigenvalues --  -10.21393 -10.21393 -10.21393 -10.21393 -10.21391
 Alpha  occ. eigenvalues --  -10.21391 -10.21390 -10.21389 -10.21389 -10.21388
 Alpha  occ. eigenvalues --  -10.21388 -10.21388 -10.21388 -10.21388 -10.21388
 Alpha  occ. eigenvalues --  -10.21386 -10.21386 -10.21386 -10.21386 -10.21386
 Alpha  occ. eigenvalues --  -10.21384 -10.21384 -10.21384 -10.21384 -10.21381
 Alpha  occ. eigenvalues --  -10.21381 -10.21380 -10.21380 -10.21380 -10.21379
 Alpha  occ. eigenvalues --  -10.21379 -10.21378 -10.21378 -10.21378 -10.21378
 Alpha  occ. eigenvalues --  -10.21376 -10.21376 -10.21374 -10.21374 -10.21374
 Alpha  occ. eigenvalues --  -10.21374 -10.21374 -10.21372 -10.21372 -10.21371
 Alpha  occ. eigenvalues --  -10.21371 -10.21371 -10.21371 -10.21371 -10.21369
 Alpha  occ. eigenvalues --  -10.21369 -10.21368 -10.21368 -10.21368 -10.21368
 Alpha  occ. eigenvalues --  -10.21367 -10.21366 -10.21366 -10.21366 -10.21365
 Alpha  occ. eigenvalues --  -10.21363 -10.21363 -10.21363 -10.21363 -10.21363
 Alpha  occ. eigenvalues --  -10.21363 -10.21362 -10.21362 -10.21362 -10.21362
 Alpha  occ. eigenvalues --  -10.21362 -10.21362 -10.21361 -10.21361 -10.21360
 Alpha  occ. eigenvalues --  -10.21357 -10.21357 -10.21356 -10.21356 -10.21356
 Alpha  occ. eigenvalues --  -10.21356 -10.21356 -10.21356 -10.21354 -10.21354
 Alpha  occ. eigenvalues --  -10.21349 -10.21349 -10.21348 -10.21348 -10.21348
 Alpha  occ. eigenvalues --  -10.21348 -10.21348 -10.21348 -10.21345 -10.21345
 Alpha  occ. eigenvalues --  -10.21343 -10.21343 -10.21340 -10.21340 -10.21339
 Alpha  occ. eigenvalues --  -10.21339 -10.21337 -10.21337 -10.21337 -10.21337
 Alpha  occ. eigenvalues --  -10.21335 -10.21335 -10.21335 -10.21335 -10.21326
 Alpha  occ. eigenvalues --  -10.21326 -10.21326 -10.21326 -10.21326 -10.21326
 Alpha  occ. eigenvalues --  -10.21326 -10.21326 -10.21325 -10.21325 -10.21321
 Alpha  occ. eigenvalues --  -10.21321 -10.21318 -10.21318 -10.21312 -10.21312
 Alpha  occ. eigenvalues --  -10.21312 -10.21312 -10.21305 -10.21305 -10.21304
 Alpha  occ. eigenvalues --  -10.21304 -10.21299 -10.21299 -10.21295 -10.21295
 Alpha  occ. eigenvalues --  -10.21289 -10.21289 -10.21289 -10.21289 -10.21281
 Alpha  occ. eigenvalues --  -10.21281 -10.21281 -10.21281 -10.21276 -10.21276
 Alpha  occ. eigenvalues --  -10.21267 -10.21267 -10.21263 -10.21263 -10.21263
 Alpha  occ. eigenvalues --  -10.21263 -10.21257 -10.21257 -10.21257 -10.21257
 Alpha  occ. eigenvalues --  -10.21254 -10.21254 -10.21231 -10.21231 -10.21229
 Alpha  occ. eigenvalues --  -10.21229 -10.21229 -10.21229 -10.21225 -10.21225
 Alpha  occ. eigenvalues --  -10.21224 -10.21224 -10.21222 -10.21222 -10.21194
 Alpha  occ. eigenvalues --  -10.21194 -10.21193 -10.21193 -10.21192 -10.21192
 Alpha  occ. eigenvalues --  -10.21191 -10.21191 -10.21190 -10.21190 -10.21190
 Alpha  occ. eigenvalues --  -10.21190 -10.21156 -10.21156 -10.21156 -10.21156
 Alpha  occ. eigenvalues --  -10.21156 -10.21156 -10.21156 -10.21156 -10.21155
 Alpha  occ. eigenvalues --  -10.21155 -10.21155 -10.21155 -10.21122 -10.21122
 Alpha  occ. eigenvalues --  -10.21122 -10.21122 -10.21121 -10.21121 -10.21121
 Alpha  occ. eigenvalues --  -10.21121 -10.21121 -10.21121 -10.21121 -10.21121
 Alpha  occ. eigenvalues --  -10.21112 -10.21112 -10.21112 -10.21112 -10.21111
 Alpha  occ. eigenvalues --  -10.21111 -10.21111 -10.21111 -10.21110 -10.21110
 Alpha  occ. eigenvalues --  -10.21110 -10.21110 -10.21073 -10.21073 -10.21072
 Alpha  occ. eigenvalues --  -10.21072 -10.21072 -10.21072 -10.21069 -10.21069
 Alpha  occ. eigenvalues --  -10.21069 -10.21069 -10.21068 -10.21068 -10.21038
 Alpha  occ. eigenvalues --  -10.21038 -10.21036 -10.21036 -10.21036 -10.21036
 Alpha  occ. eigenvalues --  -10.21032 -10.21032 -10.21032 -10.21032 -10.21030
 Alpha  occ. eigenvalues --  -10.21030 -10.21000 -10.21000 -10.21000 -10.21000
 Alpha  occ. eigenvalues --  -10.20999 -10.20999 -10.20998 -10.20998 -10.20998
 Alpha  occ. eigenvalues --  -10.20998 -10.20997 -10.20997 -10.19933 -10.19933
 Alpha  occ. eigenvalues --  -10.19933 -10.19933 -10.19933 -10.19933 -10.19932
 Alpha  occ. eigenvalues --  -10.19932 -10.19932 -10.19932 -10.19932 -10.19932
 Alpha  occ. eigenvalues --  -10.19871 -10.19871 -10.19871 -10.19871 -10.19871
 Alpha  occ. eigenvalues --  -10.19871 -10.19870 -10.19870 -10.19870 -10.19870
 Alpha  occ. eigenvalues --  -10.19870 -10.19870  -0.95984  -0.95788  -0.95501
 Alpha  occ. eigenvalues --   -0.95295  -0.95295  -0.95120  -0.95098  -0.95098
 Alpha  occ. eigenvalues --   -0.94813  -0.94813  -0.94639  -0.94433  -0.94433
 Alpha  occ. eigenvalues --   -0.94057  -0.93953  -0.93953  -0.93378  -0.93374
 Alpha  occ. eigenvalues --   -0.93374  -0.93249  -0.93248  -0.93053  -0.93053
 Alpha  occ. eigenvalues --   -0.92770  -0.92769  -0.92697  -0.92697  -0.92606
 Alpha  occ. eigenvalues --   -0.92393  -0.92393  -0.91928  -0.91928  -0.91919
 Alpha  occ. eigenvalues --   -0.91919  -0.91743  -0.91346  -0.91346  -0.91069
 Alpha  occ. eigenvalues --   -0.91069  -0.90791  -0.90679  -0.90679  -0.90121
 Alpha  occ. eigenvalues --   -0.90121  -0.89920  -0.89920  -0.89910  -0.89910
 Alpha  occ. eigenvalues --   -0.89757  -0.89717  -0.89717  -0.89437  -0.89437
 Alpha  occ. eigenvalues --   -0.89091  -0.89091  -0.89073  -0.89073  -0.89068
 Alpha  occ. eigenvalues --   -0.89068  -0.88605  -0.88605  -0.88565  -0.88138
 Alpha  occ. eigenvalues --   -0.88138  -0.88047  -0.88047  -0.87904  -0.87904
 Alpha  occ. eigenvalues --   -0.87409  -0.87409  -0.87328  -0.87125  -0.87124
 Alpha  occ. eigenvalues --   -0.86673  -0.86673  -0.86661  -0.86661  -0.86001
 Alpha  occ. eigenvalues --   -0.85963  -0.85962  -0.85823  -0.85823  -0.85388
 Alpha  occ. eigenvalues --   -0.85387  -0.85353  -0.85353  -0.85205  -0.85205
 Alpha  occ. eigenvalues --   -0.84922  -0.84922  -0.84896  -0.84896  -0.84793
 Alpha  occ. eigenvalues --   -0.84793  -0.84589  -0.84517  -0.84517  -0.84126
 Alpha  occ. eigenvalues --   -0.84125  -0.83952  -0.83952  -0.83887  -0.83887
 Alpha  occ. eigenvalues --   -0.83558  -0.83558  -0.83466  -0.83466  -0.83098
 Alpha  occ. eigenvalues --   -0.82882  -0.82881  -0.82735  -0.82735  -0.82476
 Alpha  occ. eigenvalues --   -0.82476  -0.82330  -0.82330  -0.81927  -0.81927
 Alpha  occ. eigenvalues --   -0.81544  -0.81544  -0.81535  -0.81433  -0.81433
 Alpha  occ. eigenvalues --   -0.80937  -0.80937  -0.80579  -0.80579  -0.80508
 Alpha  occ. eigenvalues --   -0.80508  -0.80282  -0.80282  -0.79908  -0.79883
 Alpha  occ. eigenvalues --   -0.79883  -0.79696  -0.79696  -0.79516  -0.79515
 Alpha  occ. eigenvalues --   -0.79446  -0.79446  -0.79339  -0.79339  -0.79135
 Alpha  occ. eigenvalues --   -0.79134  -0.79074  -0.79074  -0.78971  -0.78971
 Alpha  occ. eigenvalues --   -0.78619  -0.78619  -0.78384  -0.78384  -0.78228
 Alpha  occ. eigenvalues --   -0.78168  -0.78168  -0.77708  -0.77708  -0.77664
 Alpha  occ. eigenvalues --   -0.77664  -0.77653  -0.77653  -0.77527  -0.77527
 Alpha  occ. eigenvalues --   -0.77216  -0.77216  -0.76814  -0.76814  -0.76510
 Alpha  occ. eigenvalues --   -0.76433  -0.76433  -0.76395  -0.76395  -0.76231
 Alpha  occ. eigenvalues --   -0.76231  -0.76005  -0.76005  -0.75864  -0.75864
 Alpha  occ. eigenvalues --   -0.75600  -0.75600  -0.75302  -0.75302  -0.75283
 Alpha  occ. eigenvalues --   -0.75283  -0.75251  -0.75071  -0.75007  -0.75007
 Alpha  occ. eigenvalues --   -0.74812  -0.74773  -0.74711  -0.74711  -0.74478
 Alpha  occ. eigenvalues --   -0.74395  -0.74395  -0.74380  -0.74380  -0.74070
 Alpha  occ. eigenvalues --   -0.73586  -0.73419  -0.73419  -0.73065  -0.73065
 Alpha  occ. eigenvalues --   -0.73048  -0.73023  -0.72646  -0.72646  -0.72383
 Alpha  occ. eigenvalues --   -0.72383  -0.72373  -0.71635  -0.71385  -0.70809
 Alpha  occ. eigenvalues --   -0.70320  -0.70304  -0.70304  -0.70153  -0.69935
 Alpha  occ. eigenvalues --   -0.69908  -0.69849  -0.69661  -0.69661  -0.69622
 Alpha  occ. eigenvalues --   -0.69622  -0.69613  -0.69239  -0.69090  -0.69090
 Alpha  occ. eigenvalues --   -0.68836  -0.68769  -0.68606  -0.68484  -0.68484
 Alpha  occ. eigenvalues --   -0.68455  -0.68455  -0.68370  -0.68039  -0.68039
 Alpha  occ. eigenvalues --   -0.67931  -0.67904  -0.67904  -0.67715  -0.67675
 Alpha  occ. eigenvalues --   -0.67590  -0.67529  -0.67529  -0.67462  -0.67072
 Alpha  occ. eigenvalues --   -0.67072  -0.66981  -0.66980  -0.66926  -0.66926
 Alpha  occ. eigenvalues --   -0.66849  -0.66849  -0.66490  -0.65786  -0.65786
 Alpha  occ. eigenvalues --   -0.65776  -0.65776  -0.65541  -0.65541  -0.65336
 Alpha  occ. eigenvalues --   -0.65336  -0.65225  -0.65186  -0.65186  -0.64886
 Alpha  occ. eigenvalues --   -0.64886  -0.64736  -0.64736  -0.64543  -0.64543
 Alpha  occ. eigenvalues --   -0.64450  -0.64450  -0.64286  -0.64286  -0.64070
 Alpha  occ. eigenvalues --   -0.64070  -0.63947  -0.63947  -0.63937  -0.63937
 Alpha  occ. eigenvalues --   -0.63884  -0.63651  -0.63651  -0.63585  -0.63584
 Alpha  occ. eigenvalues --   -0.63491  -0.63491  -0.63377  -0.63377  -0.63322
 Alpha  occ. eigenvalues --   -0.63322  -0.63126  -0.63126  -0.63108  -0.63108
 Alpha  occ. eigenvalues --   -0.62499  -0.62499  -0.62469  -0.62022  -0.62022
 Alpha  occ. eigenvalues --   -0.61768  -0.61768  -0.61512  -0.61512  -0.60984
 Alpha  occ. eigenvalues --   -0.60879  -0.60879  -0.60075  -0.60075  -0.59901
 Alpha  occ. eigenvalues --   -0.59901  -0.59777  -0.59777  -0.59603  -0.59543
 Alpha  occ. eigenvalues --   -0.59432  -0.59185  -0.59185  -0.58989  -0.58711
 Alpha  occ. eigenvalues --   -0.58260  -0.58260  -0.58055  -0.58055  -0.58054
 Alpha  occ. eigenvalues --   -0.58036  -0.58036  -0.57819  -0.57609  -0.57465
 Alpha  occ. eigenvalues --   -0.57465  -0.57147  -0.57147  -0.57066  -0.57065
 Alpha  occ. eigenvalues --   -0.56954  -0.56954  -0.56826  -0.56826  -0.56773
 Alpha  occ. eigenvalues --   -0.56773  -0.56765  -0.56740  -0.56739  -0.56683
 Alpha  occ. eigenvalues --   -0.56683  -0.56630  -0.56630  -0.56564  -0.56563
 Alpha  occ. eigenvalues --   -0.56471  -0.56471  -0.56390  -0.56215  -0.56215
 Alpha  occ. eigenvalues --   -0.56149  -0.56097  -0.56097  -0.55910  -0.55909
 Alpha  occ. eigenvalues --   -0.55875  -0.55875  -0.55824  -0.55824  -0.55181
 Alpha  occ. eigenvalues --   -0.55158  -0.55158  -0.55082  -0.54957  -0.54957
 Alpha  occ. eigenvalues --   -0.54426  -0.54286  -0.54286  -0.54202  -0.54202
 Alpha  occ. eigenvalues --   -0.54010  -0.54010  -0.53940  -0.53940  -0.53694
 Alpha  occ. eigenvalues --   -0.53531  -0.53531  -0.53450  -0.52807  -0.52807
 Alpha  occ. eigenvalues --   -0.52656  -0.52619  -0.52619  -0.52451  -0.52451
 Alpha  occ. eigenvalues --   -0.52232  -0.52181  -0.52181  -0.51903  -0.51903
 Alpha  occ. eigenvalues --   -0.51702  -0.51426  -0.51426  -0.51348  -0.51348
 Alpha  occ. eigenvalues --   -0.51293  -0.51292  -0.50948  -0.50948  -0.50946
 Alpha  occ. eigenvalues --   -0.50945  -0.50925  -0.50925  -0.50920  -0.50920
 Alpha  occ. eigenvalues --   -0.50845  -0.50707  -0.50587  -0.50586  -0.50504
 Alpha  occ. eigenvalues --   -0.50504  -0.50021  -0.49997  -0.49997  -0.49955
 Alpha  occ. eigenvalues --   -0.49954  -0.49930  -0.49930  -0.49766  -0.49766
 Alpha  occ. eigenvalues --   -0.49556  -0.49556  -0.49455  -0.49455  -0.49452
 Alpha  occ. eigenvalues --   -0.49452  -0.49236  -0.49236  -0.49229  -0.49229
 Alpha  occ. eigenvalues --   -0.49191  -0.49191  -0.49143  -0.49090  -0.49090
 Alpha  occ. eigenvalues --   -0.49072  -0.49072  -0.49016  -0.48996  -0.48996
 Alpha  occ. eigenvalues --   -0.48580  -0.48576  -0.48576  -0.48447  -0.48355
 Alpha  occ. eigenvalues --   -0.48346  -0.48346  -0.48134  -0.48134  -0.48091
 Alpha  occ. eigenvalues --   -0.48091  -0.48024  -0.47784  -0.47784  -0.47770
 Alpha  occ. eigenvalues --   -0.47769  -0.47680  -0.47680  -0.47597  -0.47589
 Alpha  occ. eigenvalues --   -0.47563  -0.47563  -0.47438  -0.47438  -0.47238
 Alpha  occ. eigenvalues --   -0.47238  -0.47065  -0.47064  -0.47035  -0.47020
 Alpha  occ. eigenvalues --   -0.47012  -0.46839  -0.46839  -0.46805  -0.46805
 Alpha  occ. eigenvalues --   -0.46761  -0.46761  -0.46493  -0.46493  -0.46373
 Alpha  occ. eigenvalues --   -0.46282  -0.46282  -0.46228  -0.46227  -0.46121
 Alpha  occ. eigenvalues --   -0.46067  -0.46067  -0.45916  -0.45916  -0.45848
 Alpha  occ. eigenvalues --   -0.45847  -0.45811  -0.45731  -0.45731  -0.45668
 Alpha  occ. eigenvalues --   -0.45667  -0.45652  -0.45652  -0.45595  -0.45549
 Alpha  occ. eigenvalues --   -0.45549  -0.45499  -0.45499  -0.45486  -0.45486
 Alpha  occ. eigenvalues --   -0.45463  -0.45463  -0.45429  -0.45429  -0.45394
 Alpha  occ. eigenvalues --   -0.45394  -0.45277  -0.45276  -0.45242  -0.45242
 Alpha  occ. eigenvalues --   -0.45214  -0.45214  -0.45153  -0.45152  -0.45140
 Alpha  occ. eigenvalues --   -0.45037  -0.45037  -0.44986  -0.44985  -0.44981
 Alpha  occ. eigenvalues --   -0.44981  -0.44926  -0.44915  -0.44915  -0.44886
 Alpha  occ. eigenvalues --   -0.44886  -0.44738  -0.44737  -0.44724  -0.44724
 Alpha  occ. eigenvalues --   -0.44692  -0.44692  -0.44647  -0.44647  -0.44551
 Alpha  occ. eigenvalues --   -0.44551  -0.44482  -0.44439  -0.44439  -0.44426
 Alpha  occ. eigenvalues --   -0.44426  -0.44384  -0.44384  -0.44349  -0.44349
 Alpha  occ. eigenvalues --   -0.44248  -0.44248  -0.44117  -0.44117  -0.44018
 Alpha  occ. eigenvalues --   -0.44018  -0.43866  -0.43865  -0.43853  -0.43610
 Alpha  occ. eigenvalues --   -0.43610  -0.43560  -0.43446  -0.43446  -0.43344
 Alpha  occ. eigenvalues --   -0.43344  -0.43256  -0.43235  -0.43235  -0.43182
 Alpha  occ. eigenvalues --   -0.43182  -0.43001  -0.42928  -0.42928  -0.42877
 Alpha  occ. eigenvalues --   -0.42877  -0.42774  -0.42774  -0.42726  -0.42597
 Alpha  occ. eigenvalues --   -0.42597  -0.42454  -0.42453  -0.42237  -0.42236
 Alpha  occ. eigenvalues --   -0.42225  -0.42225  -0.42168  -0.42168  -0.42155
 Alpha  occ. eigenvalues --   -0.42155  -0.42081  -0.42081  -0.42017  -0.42016
 Alpha  occ. eigenvalues --   -0.42015  -0.42015  -0.41850  -0.41850  -0.41776
 Alpha  occ. eigenvalues --   -0.41776  -0.41734  -0.41733  -0.41625  -0.41625
[...]
   312  C   -0.000511  -0.000511
   313  C   -0.000318  -0.000318
   314  C   -0.000333  -0.000333
   315  C   -0.000554  -0.000554
   316  C   -0.000569  -0.000569
   317  C   -0.000543  -0.000543
   318  C   -0.000558  -0.000558
   319  C   -0.000591  -0.000592
   320  C   -0.000605  -0.000606
   321  C   -0.000021  -0.000245
   322  C   -0.000036  -0.000260
   323  C    0.008377   0.012650
   324  C    0.008374   0.012648
   325  C    0.008373   0.012646
   326  C    0.008381   0.012654
   327  C   -0.000038  -0.000261
   328  C   -0.000022  -0.000245
   329  C   -0.000610  -0.000611
   330  C   -0.000590  -0.000590
   331  C   -0.000562  -0.000562
   332  C   -0.000541  -0.000541
   333  C   -0.000574  -0.000574
   334  C   -0.000553  -0.000553
   335  C   -0.000337  -0.000337
   336  C   -0.000316  -0.000316
   337  C   -0.000516  -0.000516
   338  C   -0.000495  -0.000495
   339  C   -0.000440  -0.000440
   340  C   -0.000420  -0.000420
   341  C   -0.000373  -0.000373
   342  C   -0.000352  -0.000352
   343  C   -0.000442  -0.000442
   344  C   -0.000421  -0.000421
   345  C   -0.000472  -0.000472
   346  C   -0.000451  -0.000451
   347  C   -0.000356  -0.000356
   348  C   -0.000335  -0.000335
   349  C   -0.000477  -0.000477
   350  C   -0.000457  -0.000457
   351  C   -0.000568  -0.000568
   352  C   -0.000547  -0.000547
   353  C   -0.000341  -0.000341
   354  C   -0.000320  -0.000320
   355  C   -0.000691  -0.000691
   356  C   -0.000671  -0.000671
   357  C   -0.000986  -0.000998
   358  C   -0.000966  -0.000978
   359  C   -0.000878  -0.004915
   360  C   -0.000866  -0.004903
   361  C   -0.000884  -0.004920
   362  C   -0.000879  -0.004915
   363  C   -0.000985  -0.000998
   364  C   -0.000986  -0.000998
   365  C   -0.000688  -0.000688
   366  C   -0.000688  -0.000688
   367  C   -0.000340  -0.000340
   368  C   -0.000340  -0.000340
   369  C   -0.000567  -0.000567
   370  C   -0.000567  -0.000567
   371  C   -0.000475  -0.000475
   372  C   -0.000475  -0.000475
   373  C   -0.000356  -0.000356
   374  C   -0.000355  -0.000355
   375  C   -0.000471  -0.000471
   376  C   -0.000471  -0.000471
   377  C   -0.000440  -0.000440
   378  C   -0.000440  -0.000440
   379  C   -0.000373  -0.000373
   380  C   -0.000372  -0.000372
   381  C   -0.000439  -0.000439
   382  C   -0.000438  -0.000438
   383  C   -0.000515  -0.000515
   384  C   -0.000514  -0.000514
   385  C   -0.000336  -0.000336
   386  C   -0.000336  -0.000336
   387  C   -0.000572  -0.000572
   388  C   -0.000572  -0.000572
   389  C   -0.000561  -0.000561
   390  C   -0.000561  -0.000561
   391  C   -0.000609  -0.000609
   392  C   -0.000608  -0.000608
   393  C   -0.000039  -0.000263
   394  C   -0.000039  -0.000263
   395  C    0.008369   0.012642
   396  C    0.008373   0.012647
   397  C    0.008377   0.012650
   398  C    0.008374   0.012648
   399  C   -0.000021  -0.000245
   400  C   -0.000036  -0.000260
   401  C   -0.000591  -0.000592
   402  C   -0.000605  -0.000606
   403  C   -0.000543  -0.000543
   404  C   -0.000558  -0.000558
   405  C   -0.000554  -0.000554
   406  C   -0.000569  -0.000569
   407  C   -0.000319  -0.000319
   408  C   -0.000333  -0.000333
   409  C   -0.000497  -0.000497
   410  C   -0.000511  -0.000511
   411  C   -0.000421  -0.000421
   412  C   -0.000435  -0.000435
   413  C   -0.000355  -0.000355
   414  C   -0.000369  -0.000369
   415  C   -0.000422  -0.000422
   416  C   -0.000437  -0.000437
   417  C   -0.000453  -0.000453
   418  C   -0.000468  -0.000468
   419  C   -0.000338  -0.000338
   420  C   -0.000352  -0.000352
   421  C   -0.000457  -0.000457
   422  C   -0.000472  -0.000472
   423  C   -0.000549  -0.000549
   424  C   -0.000564  -0.000564
   425  C   -0.000322  -0.000322
   426  C   -0.000337  -0.000337
   427  C   -0.000671  -0.000671
   428  C   -0.000685  -0.000686
   429  C   -0.000969  -0.000982
   430  C   -0.000984  -0.000997
   431  C   -0.000868  -0.004905
   432  C   -0.000882  -0.004919
 
 EQQ=  0.00000000000     EQD=  0.00000000000     EDD= 0.386016237038E-01
 EQQ+QD+DD= 0.386016237038E-01
 
 1\1\GINC-CU12\SP\RB3LYP\6-311G(d)\C432H24\WANG\08-Jul-2025\0\\# B3LYP/
 6-311G* Pop=Hirshfeld NOSYMM\\From ../../cnt_6_6-18_opt.out\\0,1\C,0,3
 .598849,2.078874,1.166635\C,0,4.093188,0.720731,1.16666\C,0,3.54489,2.
 042692,3.634014\C,0,4.028412,0.71382,3.634029\C,0,3.562226,2.058376,6.
 099985\C,0,4.051783,0.712941,6.099993\C,0,3.560846,2.05463,8.571298\C,
 0,4.048314,0.714929,8.571304\C,0,3.559984,2.05359,11.033878\C,0,4.0469
 8,0.715169,11.03388\C,0,3.562875,2.058274,13.503418\C,0,4.052206,0.713
 429,13.50342\C,0,3.559426,2.052783,15.97103\C,0,4.046033,0.715421,15.9
 71031\C,0,3.561434,2.055901,18.434999\C,0,4.049577,0.714315,18.434999\
 C,0,3.562019,2.056846,20.905628\C,0,4.050634,0.713964,20.905628\C,0,3.
 559266,2.052503,23.370624\C,0,4.045735,0.715525,23.370624\C,0,3.562515
 ,2.057648,25.836838\C,0,4.051532,0.713667,25.836838\C,0,3.560753,2.054
 817,28.307111\C,0,4.048362,0.71471,28.307113\C,0,3.559717,2.053341,30.
 770271\C,0,4.046616,0.715184,30.770273\C,0,3.563392,2.058884,33.239526
 \C,0,4.052991,0.713304,33.23953\C,0,3.559527,2.052185,35.70764\C,0,4.0
 45712,0.715977,35.707645\C,0,3.555973,2.053238,38.16979\C,0,4.043628,0
 .712911,38.169794\C,0,3.553039,2.05695,40.649147\C,0,4.043754,0.708226
 ,40.64915\C,0,3.688708,2.072657,43.071831\C,0,4.157878,0.783386,43.071
 821\C,0,2.157923,3.63897,-0.030428\C,0,3.208914,2.757065,-0.030436\C,0
 ,2.04841,3.557618,2.392271\C,0,3.147897,2.635132,2.392269\C,0,2.052842
 ,3.555928,4.87164\C,0,3.145477,2.639187,4.871639\C,0,2.056479,3.556846
 ,7.333799\C,0,3.145764,2.642912,7.333798\C,0,2.056489,3.564605,9.80192
 \C,0,3.153407,2.644257,9.801919\C,0,2.056092,3.557977,12.271181\C,0,3.
 146967,2.64271,12.27118\C,0,2.056254,3.559778,14.734344\C,0,3.148717,2
 .643177,14.734344\C,0,2.056363,3.563112,17.204621\C,0,3.151979,2.64385
 9,17.20462\C,0,2.056126,3.557029,19.670836\C,0,3.146041,2.64257,19.670
 835\C,0,2.056334,3.562164,22.135832\C,0,3.151054,2.643663,22.135832\C,
 0,2.056299,3.56105,24.60646\C,0,3.149965,2.643437,24.60646\C,0,2.05612
 2,3.557344,27.070427\C,0,3.146349,2.642624,27.070426\C,0,2.056361,3.56
 3828,29.538037\C,0,3.152683,2.643986,29.538035\C,0,2.056209,3.558332,3
 2.007573\C,0,3.147303,2.642889,32.007571\C,0,2.056449,3.559682,34.4701
 45\C,0,3.148588,2.643363,34.470143\C,0,2.05579,3.563646,36.941451\C,0,
 3.152606,2.64341,36.941446\C,0,2.048666,3.541436,39.40741\C,0,3.132008
 ,2.632558,39.407406\C,0,2.077365,3.599934,41.874781\C,0,3.184592,2.670
 957,41.874781\C,0,-0.00105,4.156153,1.166681\C,0,1.422296,3.905146,1.1
 6665\C,0,0.003367,4.091114,3.634039\C,0,1.395977,3.845593,3.634022\C,0
 ,-0.001526,4.113956,6.100001\C,0,1.40844,3.865382,6.09999\C,0,0.001043
 ,4.11087,8.571307\C,0,1.405002,3.863361,8.571301\C,0,0.00152,4.109586,
 11.033886\C,0,1.404137,3.86232,11.033881\C,0,-0.001089,4.114427,13.503
 422\C,0,1.408258,3.865976,13.503419\C,0,0.001945,4.108688,15.971032\C,
 0,1.40345,3.86162,15.971031\C,0,0.000246,4.111987,18.435001\C,0,1.4061
 78,3.864137,18.435\C,0,-0.000281,4.112967,20.905627\C,0,1.407008,3.864
 877,20.905627\C,0,0.002103,4.108411,23.370625\C,0,1.403207,3.861412,23
 .370624\C,0,-0.000731,4.113799,25.83684\C,0,1.40771,3.865505,25.836839
 \C,0,0.00084,4.110855,28.307113\C,0,1.405223,3.863278,28.307111\C,0,0.
 001602,4.109213,30.770278\C,0,1.403943,3.862,30.770274\C,0,-0.001357,4
 .115161,33.239535\C,0,1.408761,3.866581,33.239529\C,0,0.002524,4.10843
 7,35.707652\C,0,1.402824,3.861602,35.707644\C,0,-0.000145,4.105829,38.
 169809\C,0,1.404463,3.858257,38.169798\C,0,-0.004781,4.105124,40.64915
 3\C,0,1.408635,3.856026,40.649147\C,0,0.049477,4.230696,43.071821\C,0,
 1.400621,3.992473,43.071816\C,0,-2.072657,3.688708,-0.030371\C,0,-0.78
 3386,4.157878,-0.030361\C,0,-2.05695,3.553039,2.392313\C,0,-0.708226,4
 .043753,2.39231\C,0,-2.053237,3.555973,4.87167\C,0,-0.712911,4.043628,
 4.871666\C,0,-2.052185,3.559526,7.33382\C,0,-0.715977,4.045711,7.33381
 5\C,0,-2.058884,3.563391,9.801933\C,0,-0.713304,4.052991,9.80193\C,0,-
 2.05334,3.559716,12.271188\C,0,-0.715183,4.046616,12.271187\C,0,-2.054
 817,3.560753,14.734349\C,0,-0.71471,4.048362,14.734347\C,0,-2.057647,3
 .562514,17.204622\C,0,-0.713667,4.051531,17.204622\C,0,-2.052503,3.559
 266,19.670836\C,0,-0.715525,4.045735,19.670836\C,0,-2.056845,3.562019,
 22.135832\C,0,-0.713963,4.050634,22.135832\C,0,-2.055901,3.561434,24.6
 06461\C,0,-0.714315,4.049577,24.606461\C,0,-2.052782,3.559426,27.07043
 \C,0,-0.715421,4.046033,27.070429\C,0,-2.058274,3.562875,29.538042\C,0
 ,-0.713429,4.052205,29.53804\C,0,-2.05359,3.559983,32.007582\C,0,-0.71
 5169,4.04698,32.00758\C,0,-2.05463,3.560846,34.470162\C,0,-0.714929,4.
 048314,34.470156\C,0,-2.058376,3.562225,36.941475\C,0,-0.712941,4.0517
 83,36.941467\C,0,-2.042691,3.54489,39.407445\C,0,-0.71382,4.028412,39.
 407431\C,0,-2.078873,3.598849,41.874825\C,0,-0.720731,4.093188,41.8748
 \C,0,-3.599934,2.077365,1.166679\C,0,-2.670957,3.184591,1.166679\C,0,-
 3.541435,2.048666,3.63405\C,0,-2.632558,3.132008,3.634054\C,0,-3.56364
 6,2.05579,6.100009\C,0,-2.64341,3.152606,6.100014\C,0,-3.559682,2.0564
 49,8.571315\C,0,-2.643363,3.148588,8.571317\C,0,-3.558332,2.056209,11.
 033887\C,0,-2.642888,3.147303,11.033889\C,0,-3.563828,2.056361,13.5034
 23\C,0,-2.643986,3.152682,13.503425\C,0,-3.557344,2.056122,15.971033\C
 ,0,-2.642623,3.146349,15.971033\C,0,-3.56105,2.056299,18.434999\C,0,-2
 .643437,3.149965,18.435\C,0,-3.562163,2.056333,20.905628\C,0,-2.643663
 ,3.151054,20.905628\C,0,-3.557029,2.056126,23.370624\C,0,-2.642569,3.1
 46041,23.370624\C,0,-3.563111,2.056363,25.836839\C,0,-2.643859,3.15197
 9,25.836839\C,0,-3.559778,2.056254,28.307115\C,0,-2.643177,3.148716,28
 .307116\C,0,-3.557977,2.056091,30.770279\C,0,-2.64271,3.146967,30.7702
 8\C,0,-3.564605,2.056489,33.23954\C,0,-2.644257,3.153407,33.239541\C,0
 ,-3.556845,2.056479,35.707661\C,0,-2.642912,3.145764,35.707662\C,0,-3.
 555928,2.052841,38.16982\C,0,-2.639187,3.145476,38.169821\C,0,-3.55761
 8,2.04841,40.649189\C,0,-2.635131,3.147896,40.649191\C,0,-3.63897,2.15
 7923,43.071888\C,0,-2.757065,3.208914,43.071896\C,0,-4.230696,0.049477
 ,-0.030361\C,0,-3.992473,1.400621,-0.030356\C,0,-4.105124,-0.004781,2.
 392307\C,0,-3.856026,1.408635,2.392313\C,0,-4.105829,-0.000145,4.87165
 1\C,0,-3.858257,1.404463,4.871662\C,0,-4.108437,0.002524,7.333808\C,0,
 -3.861602,1.402824,7.333816\C,0,-4.11516,-0.001357,9.801925\C,0,-3.866
 581,1.408761,9.801931\C,0,-4.109213,0.001602,12.271182\C,0,-3.861999,1
 .403942,12.271186\C,0,-4.110854,0.00084,14.734347\C,0,-3.863278,1.4052
 22,14.734348\C,0,-4.113799,-0.000731,17.20462\C,0,-3.865505,1.407709,1
 7.204621\C,0,-4.108411,0.002102,19.670835\C,0,-3.861412,1.403206,19.67
 0836\C,0,-4.112967,-0.000281,22.135833\C,0,-3.864877,1.407008,22.13583
 3\C,0,-4.111986,0.000246,24.606459\C,0,-3.864137,1.406177,24.606459\C,
 0,-4.108688,0.001944,27.070428\C,0,-3.86162,1.40345,27.070429\C,0,-4.1
 14427,-0.001089,29.538038\C,0,-3.865975,1.408257,29.53804\C,0,-4.10958
 6,0.00152,32.007574\C,0,-3.86232,1.404137,32.007578\C,0,-4.11087,0.001
 043,34.470153\C,0,-3.863361,1.405002,34.470159\C,0,-4.113956,-0.001526
 ,36.941459\C,0,-3.865381,1.40844,36.94147\C,0,-4.091114,0.003367,39.40
 7421\C,0,-3.845593,1.395977,39.407438\C,0,-4.156153,-0.00105,41.874779
 \C,0,-3.905145,1.422296,41.87481\C,0,-3.598849,-2.078874,1.166635\C,0,
 -4.093187,-0.720731,1.16666\C,0,-3.54489,-2.042692,3.634014\C,0,-4.028
 411,-0.71382,3.634029\C,0,-3.562225,-2.058376,6.099985\C,0,-4.051782,-
 0.712941,6.099993\C,0,-3.560846,-2.05463,8.571298\C,0,-4.048314,-0.714
 929,8.571304\C,0,-3.559983,-2.05359,11.033878\C,0,-4.04698,-0.715169,1
 1.03388\C,0,-3.562875,-2.058274,13.503418\C,0,-4.052205,-0.713429,13.5
 0342\C,0,-3.559426,-2.052783,15.97103\C,0,-4.046032,-0.715421,15.97103
 1\C,0,-3.561434,-2.055901,18.434999\C,0,-4.049577,-0.714315,18.434999\
 C,0,-3.562018,-2.056846,20.905628\C,0,-4.050634,-0.713964,20.905628\C,
 0,-3.559266,-2.052503,23.370624\C,0,-4.045735,-0.715525,23.370624\C,0,
 -3.562514,-2.057648,25.836838\C,0,-4.051531,-0.713667,25.836838\C,0,-3
 .560753,-2.054817,28.307111\C,0,-4.048361,-0.71471,28.307113\C,0,-3.55
 9716,-2.053341,30.770271\C,0,-4.046616,-0.715184,30.770273\C,0,-3.5633
 91,-2.058884,33.239526\C,0,-4.052991,-0.713304,33.23953\C,0,-3.559526,
 -2.052185,35.707639\C,0,-4.045711,-0.715977,35.707645\C,0,-3.555973,-2
 .053238,38.16979\C,0,-4.043627,-0.712912,38.169794\C,0,-3.553039,-2.05
 695,40.649147\C,0,-4.043753,-0.708226,40.64915\C,0,-3.688707,-2.072657
 ,43.071831\C,0,-4.157878,-0.783387,43.071821\C,0,-2.157922,-3.63897,-0
 .030428\C,0,-3.208914,-2.757065,-0.030436\C,0,-2.04841,-3.557618,2.392
 271\C,0,-3.147896,-2.635132,2.392269\C,0,-2.052841,-3.555928,4.87164\C
 ,0,-3.145476,-2.639187,4.871639\C,0,-2.056479,-3.556845,7.333799\C,0,-
 3.145764,-2.642912,7.333798\C,0,-2.056488,-3.564605,9.80192\C,0,-3.153
 406,-2.644257,9.801919\C,0,-2.056091,-3.557977,12.271181\C,0,-3.146966
 ,-2.64271,12.27118\C,0,-2.056253,-3.559778,14.734344\C,0,-3.148716,-2.
 643177,14.734344\C,0,-2.056362,-3.563112,17.204621\C,0,-3.151979,-2.64
 3859,17.20462\C,0,-2.056125,-3.557029,19.670836\C,0,-3.14604,-2.64257,
 19.670835\C,0,-2.056333,-3.562164,22.135832\C,0,-3.151054,-2.643663,22
 .135831\C,0,-2.056298,-3.56105,24.60646\C,0,-3.149964,-2.643437,24.606
 46\C,0,-2.056122,-3.557344,27.070427\C,0,-3.146349,-2.642624,27.070426
 \C,0,-2.05636,-3.563828,29.538036\C,0,-3.152682,-2.643986,29.538035\C,
 0,-2.056209,-3.558332,32.007573\C,0,-3.147303,-2.642889,32.007571\C,0,
 -2.056449,-3.559682,34.470145\C,0,-3.148588,-2.643363,34.470143\C,0,-2
 .05579,-3.563646,36.941451\C,0,-3.152606,-2.64341,36.941446\C,0,-2.048
 666,-3.541436,39.40741\C,0,-3.132008,-2.632558,39.407406\C,0,-2.077365
 ,-3.599934,41.874781\C,0,-3.184591,-2.670957,41.874781\C,0,0.001051,-4
 .156153,1.166681\C,0,-1.422296,-3.905145,1.16665\C,0,-0.003367,-4.0911
 14,3.634039\C,0,-1.395977,-3.845593,3.634022\C,0,0.001527,-4.113956,6.
 100001\C,0,-1.40844,-3.865382,6.09999\C,0,-0.001043,-4.11087,8.571307\
 C,0,-1.405002,-3.863361,8.571301\C,0,-0.00152,-4.109586,11.033886\C,0,
 -1.404136,-3.86232,11.033881\C,0,0.001089,-4.114427,13.503422\C,0,-1.4
 08257,-3.865976,13.503419\C,0,-0.001944,-4.108688,15.971032\C,0,-1.403
 45,-3.86162,15.971031\C,0,-0.000246,-4.111987,18.435001\C,0,-1.406177,
 -3.864137,18.435\C,0,0.000282,-4.112967,20.905627\C,0,-1.407007,-3.864
 877,20.905627\C,0,-0.002102,-4.108411,23.370625\C,0,-1.403206,-3.86141
 2,23.370624\C,0,0.000732,-4.113799,25.83684\C,0,-1.407709,-3.865505,25
 .836839\C,0,-0.00084,-4.110855,28.307113\C,0,-1.405222,-3.863278,28.30
 7111\C,0,-0.001602,-4.109213,30.770278\C,0,-1.403942,-3.862,30.770274\
 C,0,0.001358,-4.115161,33.239535\C,0,-1.408761,-3.866581,33.239529\C,0
 ,-0.002524,-4.108438,35.707652\C,0,-1.402823,-3.861602,35.707644\C,0,0
 .000145,-4.105829,38.169809\C,0,-1.404463,-3.858257,38.169798\C,0,0.00
 4781,-4.105124,40.649153\C,0,-1.408635,-3.856026,40.649147\C,0,-0.0494
 77,-4.230696,43.071821\C,0,-1.400621,-3.992473,43.071816\C,0,2.072657,
 -3.688708,-0.030371\C,0,0.783387,-4.157878,-0.030361\C,0,2.05695,-3.55
 3039,2.392313\C,0,0.708227,-4.043753,2.39231\C,0,2.053238,-3.555973,4.
 87167\C,0,0.712912,-4.043627,4.871666\C,0,2.052185,-3.559526,7.33382\C
 ,0,0.715977,-4.045711,7.333815\C,0,2.058884,-3.563391,9.801933\C,0,0.7
 13305,-4.052991,9.80193\C,0,2.053341,-3.559716,12.271188\C,0,0.715184,
 -4.046616,12.271187\C,0,2.054817,-3.560753,14.734349\C,0,0.714711,-4.0
 48362,14.734347\C,0,2.057648,-3.562514,17.204622\C,0,0.713667,-4.05153
 1,17.204622\C,0,2.052504,-3.559266,19.670836\C,0,0.715525,-4.045735,19
 .670836\C,0,2.056846,-3.562019,22.135832\C,0,0.713964,-4.050634,22.135
 832\C,0,2.055902,-3.561434,24.606461\C,0,0.714315,-4.049577,24.606461\
 C,0,2.052783,-3.559426,27.07043\C,0,0.715421,-4.046033,27.070429\C,0,2
 .058275,-3.562875,29.538042\C,0,0.71343,-4.052205,29.53804\C,0,2.05359
 ,-3.559983,32.007582\C,0,0.715169,-4.04698,32.00758\C,0,2.05463,-3.560
 846,34.470162\C,0,0.714929,-4.048314,34.470156\C,0,2.058377,-3.562226,
 36.941475\C,0,0.712941,-4.051783,36.941467\C,0,2.042692,-3.54489,39.40
 7445\C,0,0.71382,-4.028412,39.407431\C,0,2.078874,-3.598849,41.874825\
 C,0,0.720732,-4.093188,41.8748\C,0,3.599934,-2.077365,1.166679\C,0,2.6
 70958,-3.184591,1.166679\C,0,3.541436,-2.048666,3.63405\C,0,2.632558,-
 3.132008,3.634054\C,0,3.563647,-2.05579,6.100009\C,0,2.643411,-3.15260
 6,6.100014\C,0,3.559682,-2.056449,8.571314\C,0,2.643364,-3.148588,8.57
 1317\C,0,3.558332,-2.056209,11.033887\C,0,2.642889,-3.147303,11.033889
 \C,0,3.563828,-2.056361,13.503423\C,0,2.643986,-3.152682,13.503425\C,0
 ,3.557345,-2.056122,15.971033\C,0,2.642624,-3.146349,15.971033\C,0,3.5
 61051,-2.056299,18.434999\C,0,2.643438,-3.149965,18.435\C,0,3.562164,-
 2.056333,20.905628\C,0,2.643664,-3.151054,20.905628\C,0,3.557029,-2.05
 6126,23.370624\C,0,2.64257,-3.146041,23.370624\C,0,3.563112,-2.056363,
 25.836839\C,0,2.643859,-3.151979,25.836839\C,0,3.559779,-2.056254,28.3
 07115\C,0,2.643178,-3.148716,28.307116\C,0,3.557977,-2.056091,30.77027
 9\C,0,2.64271,-3.146967,30.77028\C,0,3.564606,-2.056489,33.23954\C,0,2
 .644257,-3.153407,33.239541\C,0,3.556846,-2.056479,35.707661\C,0,2.642
 913,-3.145764,35.707662\C,0,3.555928,-2.052841,38.16982\C,0,2.639187,-
 3.145476,38.169821\C,0,3.557618,-2.04841,40.649189\C,0,2.635132,-3.147
 896,40.649191\C,0,3.63897,-2.157923,43.071888\C,0,2.757066,-3.208914,4
 3.071896\C,0,4.230696,-0.049477,-0.030361\C,0,3.992474,-1.400621,-0.03
 0356\C,0,4.105125,0.004781,2.392307\C,0,3.856026,-1.408635,2.392313\C,
 0,4.105829,0.000145,4.871651\C,0,3.858258,-1.404463,4.871662\C,0,4.108
 438,-0.002524,7.333808\C,0,3.861603,-1.402823,7.333816\C,0,4.115161,0.
 001358,9.801925\C,0,3.866581,-1.408761,9.801931\C,0,4.109214,-0.001602
 ,12.271182\C,0,3.862,-1.403942,12.271186\C,0,4.110855,-0.00084,14.7343
 47\C,0,3.863278,-1.405222,14.734348\C,0,4.1138,0.000731,17.20462\C,0,3
 .865506,-1.407709,17.204621\C,0,4.108412,-0.002102,19.670835\C,0,3.861
 412,-1.403206,19.670836\C,0,4.112967,0.000281,22.135833\C,0,3.864877,-
 1.407008,22.135833\C,0,4.111987,-0.000246,24.606459\C,0,3.864138,-1.40
 6177,24.606459\C,0,4.108689,-0.001944,27.070428\C,0,3.861621,-1.40345,
 27.070429\C,0,4.114428,0.001089,29.538038\C,0,3.865976,-1.408257,29.53
 804\C,0,4.109587,-0.00152,32.007574\C,0,3.862321,-1.404137,32.007578\C
 ,0,4.11087,-0.001043,34.470153\C,0,3.863362,-1.405002,34.470159\C,0,4.
 113957,0.001526,36.941459\C,0,3.865382,-1.40844,36.94147\C,0,4.091115,
 -0.003367,39.407421\C,0,3.845593,-1.395977,39.407438\C,0,4.156153,0.00
 105,41.874779\C,0,3.905146,-1.422296,41.87481\H,0,3.58771,2.592187,44.
 019353\H,0,4.414354,0.320416,44.019335\H,0,1.810561,4.038232,-0.977968
 \H,0,3.662429,2.484325,-0.977981\H,0,-0.450919,4.403028,44.019348\H,0,
 1.929777,3.983192,44.019345\H,0,-2.592187,3.58771,-0.977893\H,0,-0.320
 416,4.414354,-0.977875\H,0,-4.038232,1.81056,44.019428\H,0,-2.484324,3
 .662429,44.019441\H,0,-4.403028,-0.450919,-0.977888\H,0,-3.983192,1.92
 9777,-0.977885\H,0,-3.58771,-2.592187,44.019353\H,0,-4.414354,-0.32041
 6,44.019335\H,0,-1.81056,-4.038232,-0.977968\H,0,-3.662428,-2.484324,-
 0.977981\H,0,0.450919,-4.403028,44.019348\H,0,-1.929777,-3.983193,44.0
 19345\H,0,2.592187,-3.58771,-0.977893\H,0,0.320416,-4.414354,-0.977875
 \H,0,4.038232,-1.810561,44.019428\H,0,2.484325,-3.662429,44.019441\H,0
 ,4.403029,0.450919,-0.977888\H,0,3.983193,-1.929777,-0.977885\\Version
 =ES64L-G16RevB.01\HF=-16481.8835059\RMSD=7.152e-09\Dipole=0.0000007,0.
 0000003,-0.0000006\Quadrupole=-193.671065,-193.6710642,387.3421292,0.0
 000096,0.0000121,0.0000026\PG=C02 [X(C432H24)]\\@


 THE DIFFERENCE BETWEEN A NOOSE AND A HALO IS ONLY 12 INCHES.
 Job cpu time:       4 days 17 hours 40 minutes 26.3 seconds.
 Elapsed time:       0 days  4 hours  4 minutes 52.0 seconds.
 File lengths (MBytes):  RWF=  32934 Int=      0 D2E=      0 Chk=   3528 Scr=      1
 Normal termination of Gaussian 16 at Tue Jul  8 01:02:54 2025.
