 Entering Gaussian System, Link 0=g16
 Initial command:
 /opt/software/g16/l1.exe "/tmp/cnt_7_7-15_sgp-8733.tmp/Gau-59270.inp" -scrdir="/tmp/cnt_7_7-15_sgp-8733.tmp/"
 Entering Link 1 = /opt/software/g16/l1.exe PID=     59271.
  
 Copyright (c) 1988-2017, Gaussian, Inc.  All Rights Reserved.
  
 This is part of the Gaussian(R) 16 program.  It is based on
 the Gaussian(R) 09 system (copyright 2009, Gaussian, Inc.),
 the Gaussian(R) 03 system (copyright 2003, Gaussian, Inc.),
 the Gaussian(R) 98 system (copyright 1998, Gaussian, Inc.),
 the Gaussian(R) 94 system (copyright 1995, Gaussian, Inc.),
 the Gaussian 92(TM) system (copyright 1992, Gaussian, Inc.),
 the Gaussian 90(TM) system (copyright 1990, Gaussian, Inc.),
 the Gaussian 88(TM) system (copyright 1988, Gaussian, Inc.),
 the Gaussian 86(TM) system (copyright 1986, Carnegie Mellon
 University), and the Gaussian 82(TM) system (copyright 1983,
 Carnegie Mellon University). Gaussian is a federally registered
 trademark of Gaussian, Inc.
  
 This software contains proprietary and confidential information,
 including trade secrets, belonging to Gaussian, Inc.
  
 This software is provided under written license and may be
 used, copied, transmitted, or stored only in accord with that
 written license.
  
 The following legend is applicable only to US Government
 contracts under FAR:
  
                    RESTRICTED RIGHTS LEGEND
  
 Use, reproduction and disclosure by the US Government is
 subject to restrictions as set forth in subparagraphs (a)
 and (c) of the Commercial Computer Software - Restricted
 Rights clause in FAR 52.227-19.
  
 Gaussian, Inc.
 340 Quinnipiac St., Bldg. 40, Wallingford CT 06492
  
  
 ---------------------------------------------------------------
 Warning -- This program may not be used in any manner that
 competes with the business of Gaussian, Inc. or will provide
 assistance to any competitor of Gaussian, Inc.  The licensee
 of this program is prohibited from giving any competitor of
 Gaussian, Inc. access to this program.  By using this program,
 the user acknowledges that Gaussian, Inc. is engaged in the
 business of creating and licensing software in the field of
 computational chemistry and represents and warrants to the
 licensee that it is not a competitor of Gaussian, Inc. and that
 it will not use this program in any manner prohibited above.
 ---------------------------------------------------------------
  

 Cite this work as:
 Gaussian 16, Revision B.01,
 M. J. Frisch, G. W. Trucks, H. B. Schlegel, G. E. Scuseria, 
 M. A. Robb, J. R. Cheeseman, G. Scalmani, V. Barone, 
 G. A. Petersson, H. Nakatsuji, X. Li, M. Caricato, A. V. Marenich, 
 J. Bloino, B. G. Janesko, R. Gomperts, B. Mennucci, H. P. Hratchian, 
 J. V. Ortiz, A. F. Izmaylov, J. L. Sonnenberg, D. Williams-Young, 
 F. Ding, F. Lipparini, F. Egidi, J. Goings, B. Peng, A. Petrone, 
 T. Henderson, D. Ranasinghe, V. G. Zakrzewski, J. Gao, N. Rega, 
 G. Zheng, W. Liang, M. Hada, M. Ehara, K. Toyota, R. Fukuda, 
 J. Hasegawa, M. Ishida, T. Nakajima, Y. Honda, O. Kitao, H. Nakai, 
 T. Vreven, K. Throssell, J. A. Montgomery, Jr., J. E. Peralta, 
 F. Ogliaro, M. J. Bearpark, J. J. Heyd, E. N. Brothers, K. N. Kudin, 
 V. N. Staroverov, T. A. Keith, R. Kobayashi, J. Normand, 
 K. Raghavachari, A. P. Rendell, J. C. Burant, S. S. Iyengar, 
 J. Tomasi, M. Cossi, J. M. Millam, M. Klene, C. Adamo, R. Cammi, 
 J. W. Ochterski, R. L. Martin, K. Morokuma, O. Farkas, 
 J. B. Foresman, and D. J. Fox, Gaussian, Inc., Wallingford CT, 2016.
 
 ******************************************
 Gaussian 16:  ES64L-G16RevB.01 20-Dec-2017
                 8-Jul-2025 
 ******************************************
 %nproc=18
 Will use up to   18 processors via shared memory.
 ------------------------------------
 # B3LYP/6-311G* Pop=Hirshfeld NOSYMM
 ------------------------------------
 1/38=1,172=1/1;
 2/12=2,15=1,17=6,18=5,40=1/2;
 3/5=4,6=6,7=1,11=2,25=1,30=1,74=-5/1,2,3;
 4//1;
 5/5=2,38=5/2;
 6/7=2,8=2,9=2,10=2,28=1,79=1/1;
 99/5=1,9=1/99;
 -----------------------------
 From ../../cnt_7_7-15_opt.out
 -----------------------------
 Symbolic Z-matrix:
 Charge =  0 Multiplicity = 1
 6                     4.35874   2.10033   1.17379 
 6                     4.78436   0.72034   1.1738 
 6                     4.29418   2.06454   3.64152 
 6                     4.71076   0.71355   3.64153 
 6                     4.31099   2.07766   6.10884 
 6                     4.73203   0.71216   6.10884 
 6                     4.31173   2.07508   8.57964 
 6                     4.73121   0.71469   8.57965 
 6                     4.31141   2.07509   11.04371 
 6                     4.73095   0.71447   11.04371 
 6                     4.31302   2.07785   13.51392 
 6                     4.73383   0.71308   13.51392 
 6                     4.31045   2.07365   15.9811 
 6                     4.72936   0.7151    15.9811 
 6                     4.31265   2.07711   18.44701 
 6                     4.73312   0.71346   18.447 
 6                     4.31203   2.07616   20.91767 
 6                     4.73207   0.7139    20.91767 
 6                     4.31058   2.07397   23.38255 
 6                     4.72964   0.7149    23.38255 
 6                     4.3138    2.07864   25.85132 
 6                     4.73492   0.71287   25.85132 
 6                     4.31058   2.07353   28.32026 
 6                     4.72938   0.7153    28.32026 
 6                     4.30366   2.07265   30.78394 
 6                     4.72315   0.71215   30.78393 
 6                     4.30584   2.07873   33.26275 
 6                     4.72839   0.70837   33.26275 
 6                     4.45421   2.09198   35.6859 
 6                     4.85849   0.78098   35.68589 
 6                     3.10573   3.81779  -0.02298 
 6                     4.03868   2.81194  -0.02299 
 6                     2.97783   3.74146   2.40016 
 6                     3.95297   2.69003   2.40015 
 6                     2.97854   3.73504   4.87899 
 6                     3.94667   2.69118   4.87898 
 6                     2.98441   3.73884   7.34266 
 6                     3.95092   2.69672   7.34266 
 6                     2.98509   3.74482   9.8116 
 6                     3.95697   2.69692   9.8116 
 6                     2.98422   3.73921   12.28037 
 6                     3.95134   2.69646   12.28037 
 6                     2.98459   3.7418    14.74526 
 6                     3.95397   2.69661   14.74525 
 6                     2.98473   3.74293   17.21592 
 6                     3.95511   2.69666   17.21591 
 6                     2.98426   3.73885   19.68181 
 6                     3.95102   2.6965    19.68181 
 6                     2.98476   3.74374   22.149 
 6                     3.95592   2.69662   22.149 
 6                     2.98451   3.74057   24.61921 
 6                     3.95273   2.69663   24.61921 
 6                     2.98482   3.74071   27.08326 
 6                     3.95288   2.69695   27.08327 
 6                     2.98304   3.74273   29.55407 
 6                     3.95473   2.69503   29.55408 
 6                     2.97361   3.72365   32.02139 
 6                     3.93498   2.6871    32.02139 
 6                     3.01623   3.78396   34.48911 
 6                     3.99828   2.72514   34.48912 
 6                     1.07585   4.71791   1.17385 
 6                     2.42018   4.19036   1.1738 
 6                     1.06365   4.64498   3.64156 
 6                     2.37973   4.12864   3.64153 
 6                     1.06387   4.66625   6.10887 
 6                     2.39411   4.14438   6.10885 
 6                     1.06636   4.66518   8.57967 
 6                     2.39161   4.14528   8.57966 
 6                     1.06614   4.6649    11.04373 
 6                     2.39162   4.14492   11.04372 
 6                     1.06499   4.66786   13.51393 
 6                     2.39451   4.1463    13.51393 
 6                     1.06667   4.66323   15.98111 
 6                     2.39014   4.14404   15.98111 
 6                     1.06533   4.6671    18.44701 
 6                     2.39376   4.14597   18.44701 
 6                     1.06569   4.66603   20.91767 
 6                     2.39276   4.14542   20.91767 
 6                     1.0665    4.66353   23.38255 
 6                     2.39047   4.14414   23.38255 
 6                     1.06485   4.66898   25.85131 
 6                     2.39535   4.14702   25.85131 
 6                     1.06685   4.6633    28.32024 
 6                     2.39      4.14422   28.32025 
 6                     1.06322   4.65735   30.78391 
 6                     2.38858   4.13741   30.78392 
 6                     1.05979   4.66288   33.26272 
 6                     2.39475   4.13914   33.26274 
 6                     1.14193   4.78736   35.68583 
 6                     2.41905   4.28625   35.68586 
 6                    -1.04821   4.80859  -0.02289 
 6                     0.31986   4.91129  -0.0229 
 6                    -1.06818   4.66067   2.40022 
 6                     0.36181   4.76803   2.40022 
 6                    -1.06268   4.65704   4.87903 
 6                     0.35701   4.76371   4.87902 
 6                    -1.06198   4.66393   7.34269 
 6                     0.35534   4.77043   7.34269 
 6                    -1.06624   4.66816   9.81162 
 6                     0.35895   4.77526   9.81162 
 6                    -1.0624    4.66396   12.28039 
 6                     0.3558    4.77053   12.28038 
 6                    -1.06421   4.66585   14.74526 
 6                     0.35731   4.77267   14.74526 
 6                    -1.065     4.66666   17.21592 
 6                     0.35798   4.77359   17.21592 
 6                    -1.0621    4.66375   19.68182 
 6                     0.35556   4.77028   19.68181 
 6                    -1.06562   4.66719   22.149 
 6                     0.35852   4.77421   22.149 
 6                    -1.06329   4.66503   24.6192 
 6                     0.35653   4.77172   24.6192 
 6                    -1.0632    4.66538   27.08325 
 6                     0.35637   4.77205   27.08325 
 6                    -1.06589   4.66526   29.55405 
 6                     0.35903   4.77234   29.55405 
 6                    -1.05686   4.64605   32.02135 
 6                     0.3529    4.75195   32.02136 
 6                    -1.0775    4.71715   34.48908 
 6                     0.36258   4.82526   34.48907 
 6                    -3.01747   3.7825    1.17387 
 6                    -1.76682   4.5046    1.17388 
 6                    -2.96806   3.72735   3.64158 
 6                    -1.74372   4.43425   3.64159 
 6                    -2.98456   3.74073   6.10888 
 6                    -1.74704   4.45519   6.10889 
 6                    -2.98219   3.742     8.57968 
 6                    -1.74931   4.45376   8.57968 
 6                    -2.98212   3.74164   11.04373 
 6                    -1.74903   4.45352   11.04373 
 6                    -2.98516   3.74257   13.51393 
 6                    -1.74831   4.45662   13.51394 
 6                    -2.9805    3.741     15.98112 
 6                    -1.74927   4.4518    15.98112 
 6                    -2.98436   3.74236   18.44701 
 6                    -1.74852   4.45582   18.44701 
 6                    -2.9833    3.74197   20.91767 
 6                    -1.74871   4.4547    20.91767 
 6                    -2.98084   3.74105   23.38255 
 6                    -1.74914   4.45212   23.38255 
 6                    -2.98611   3.74317   25.85131 
 6                    -1.74835   4.45774   25.85131 
 6                    -2.98042   3.7412    28.32024 
 6                    -1.74949   4.45183   28.32024 
 6                    -2.97802   3.73467   30.7839 
 6                    -1.74505   4.4465    30.7839 
 6                    -2.9845    3.73553   33.2627 
 6                    -1.74258   4.45253   33.2627 
 6                    -3.03067   3.87755   35.6858 
 6                    -1.84255   4.56351   35.68581 
 6                    -4.4126    2.17835  -0.02291 
 6                    -3.63993   3.31199  -0.0229 
 6                    -4.3096    2.07054   2.40021 
 6                    -3.50193   3.25548   2.40022 
 6                    -4.30347   2.07259   4.87901 
 6                    -3.5016    3.24899   4.87902 
 6                    -4.30848   2.07744   7.34268 
 6                    -3.50794   3.25187   7.34269 
 6                    -4.31449   2.07675   9.81161 
 6                    -3.50949   3.2577    9.81162 
 6                    -4.30883   2.07714   12.28038 
 6                    -3.50777   3.25228   12.28038 
 6                    -4.31144   2.0769    14.74526 
 6                    -3.50851   3.2548    14.74526 
 6                    -4.31258   2.07679   17.21592 
 6                    -3.50882   3.2559    17.21592 
 6                    -4.30849   2.07723   19.68182 
 6                    -3.50774   3.25193   19.68182 
 6                    -4.31337   2.07662   22.149 
 6                    -3.50896   3.2567    22.149 
 6                    -4.31021   2.0771    24.61921 
 6                    -3.50825   3.25358   24.6192 
 6                    -4.31041   2.07738   27.08327 
 6                    -3.50859   3.25368   27.08326 
 6                    -4.31198   2.0752    29.55406 
 6                    -3.50715   3.25594   29.55405 
 6                    -4.29125   2.07029   32.02137 
 6                    -3.49499   3.23846   32.02135 
 6                    -4.35963   2.09853   34.48907 
 6                    -3.54626   3.29182   34.48906 
 6                    -4.8382   -0.00102   1.17382 
 6                    -4.62305   1.427     1.17384 
 6                    -4.76442   0.00322   3.64154 
 6                    -4.55378   1.40117   3.64155 
 6                    -4.78522  -0.00133   6.10885 
 6                    -4.57233   1.41165   6.10886 
 6                    -4.78477   0.00131   8.57966 
 6                    -4.57268   1.409     8.57967 
 6                    -4.78448   0.00115   11.04372 
 6                    -4.57234   1.40907   11.04372 
 6                    -4.78712  -0.00064   13.51393 
 6                    -4.57433   1.41157   13.51393 
 6                    -4.78299   0.00202   15.98111 
 6                    -4.57117   1.40781   15.98112 
 6                    -4.78647  -0.00015   18.44701 
 6                    -4.57385   1.4109    18.44701 
 6                    -4.78549   0.00044   20.91767 
 6                    -4.57309   1.41005   20.91767 
 6                    -4.78323   0.00178   23.38256 
 6                    -4.57133   1.4081    23.38256 
 6                    -4.78815  -0.00103   25.85133 
 6                    -4.57521   1.41222   25.85132 
 6                    -4.78302   0.00218   28.32027 
 6                    -4.57127   1.40763   28.32026 
 6                    -4.77638  -0.00002   30.78394 
 6                    -4.56429   1.40778   30.78392 
 6                    -4.78102  -0.00452   33.26275 
 6                    -4.56739   1.41349   33.26273 
 6                    -4.92079   0.04797   35.68586 
 6                    -4.7164    1.40458   35.68584 
 6                    -4.45421  -2.09198  -0.02298 
 6                    -4.85849  -0.78098  -0.02297 
 6                    -4.30583  -2.07873   2.40017 
 6                    -4.72839  -0.70837   2.40017 
 6                    -4.30366  -2.07265   4.87899 
 6                    -4.72315  -0.71215   4.87899 
 6                    -4.31058  -2.07353   7.34266 
 6                    -4.72938  -0.7153    7.34267 
 6                    -4.3138   -2.07864   9.8116 
 6                    -4.73492  -0.71287   9.81161 
 6                    -4.31058  -2.07397   12.28037 
 6                    -4.72964  -0.7149    12.28037 
 6                    -4.31203  -2.07616   14.74526 
 6                    -4.73207  -0.7139    14.74526 
 6                    -4.31265  -2.07711   17.21592 
 6                    -4.73312  -0.71346   17.21592 
 6                    -4.31045  -2.07365   19.68182 
 6                    -4.72936  -0.7151    19.68182 
 6                    -4.31302  -2.07785   22.14901 
 6                    -4.73383  -0.71308   22.14901 
 6                    -4.31141  -2.07509   24.61922 
 6                    -4.73095  -0.71447   24.61922 
 6                    -4.31173  -2.07508   27.08328 
 6                    -4.73121  -0.71469   27.08328 
 6                    -4.31098  -2.07766   29.55409 
 6                    -4.73203  -0.71216   29.55408 
 6                    -4.29418  -2.06454   32.02141 
 6                    -4.71076  -0.71355   32.0214 
 6                    -4.35874  -2.10033   34.48914 
 6                    -4.78436  -0.72034   34.48912 
 6                    -3.01622  -3.78396   1.17381 
 6                    -3.99828  -2.72514   1.1738 
 6                    -2.97361  -3.72365   3.64154 
 6                    -3.93498  -2.6871    3.64153 
 6                    -2.98304  -3.74273   6.10885 
 6                    -3.95473  -2.69503   6.10885 
 6                    -2.98482  -3.74071   8.57966 
 6                    -3.95288  -2.69695   8.57966 
 6                    -2.98451  -3.74057   11.04372 
 6                    -3.95273  -2.69663   11.04372 
 6                    -2.98475  -3.74374   13.51393 
 6                    -3.95592  -2.69662   13.51393 
 6                    -2.98426  -3.73885   15.98111 
 6                    -3.95102  -2.6965    15.98111 
 6                    -2.98473  -3.74293   18.44701 
 6                    -3.95511  -2.69666   18.44701 
 6                    -2.98458  -3.7418    20.91767 
 6                    -3.95397  -2.69661   20.91767 
 6                    -2.98422  -3.73921   23.38255 
 6                    -3.95134  -2.69646   23.38256 
 6                    -2.98509  -3.74482   25.85132 
 6                    -3.95697  -2.69692   25.85133 
 6                    -2.98441  -3.73883   28.32026 
 6                    -3.95092  -2.69672   28.32027 
 6                    -2.97854  -3.73504   30.78394 
 6                    -3.94666  -2.69118   30.78394 
 6                    -2.97783  -3.74146   33.26277 
 6                    -3.95297  -2.69003   33.26277 
 6                    -3.10572  -3.81779   35.68591 
 6                    -4.03868  -2.81194   35.68591 
 6                    -1.14193  -4.78736  -0.02291 
 6                    -2.41905  -4.28625  -0.02294 
 6                    -1.05979  -4.66288   2.4002 
 6                    -2.39475  -4.13914   2.40019 
 6                    -1.06322  -4.65735   4.87901 
 6                    -2.38858  -4.13741   4.879 
 6                    -1.06685  -4.6633    7.34268 
 6                    -2.39     -4.14422   7.34267 
 6                    -1.06485  -4.66898   9.81161 
 6                    -2.39535  -4.14702   9.81161 
 6                    -1.0665   -4.66353   12.28038 
 6                    -2.39047  -4.14414   12.28038 
 6                    -1.06569  -4.66603   14.74526 
 6                    -2.39276  -4.14542   14.74526 
 6                    -1.06533  -4.6671    17.21592 
 6                    -2.39376  -4.14596   17.21592 
 6                    -1.06667  -4.66323   19.68181 
 6                    -2.39014  -4.14404   19.68181 
 6                    -1.06498  -4.66786   22.14899 
 6                    -2.3945   -4.1463    22.149 
 6                    -1.06614  -4.6649    24.6192 
 6                    -2.39162  -4.14492   24.61921 
 6                    -1.06636  -4.66518   27.08326 
 6                    -2.39161  -4.14528   27.08327 
 6                    -1.06387  -4.66625   29.55406 
 6                    -2.39411  -4.14438   29.55407 
 6                    -1.06365  -4.64498   32.02137 
 6                    -2.37973  -4.12864   32.02139 
 6                    -1.07585  -4.71791   34.48908 
 6                    -2.42018  -4.19036   34.48912 
 6                     1.0775   -4.71715   1.17385 
 6                    -0.36258  -4.82526   1.17386 
 6                     1.05686  -4.64605   3.64157 
 6                    -0.3529   -4.75195   3.64157 
 6                     1.06589  -4.66526   6.10888 
 6                    -0.35902  -4.77234   6.10887 
 6                     1.0632   -4.66538   8.57967 
 6                    -0.35637  -4.77205   8.57967 
 6                     1.06329  -4.66503   11.04373 
 6                    -0.35652  -4.77172   11.04373 
 6                     1.06562  -4.66719   13.51393 
 6                    -0.35852  -4.77421   13.51393 
 6                     1.06211  -4.66375   15.98111 
 6                    -0.35556  -4.77028   15.98111 
 6                     1.065    -4.66666   18.447 
 6                    -0.35798  -4.77359   18.44701 
 6                     1.06421  -4.66585   20.91766 
 6                    -0.35731  -4.77267   20.91766 
 6                     1.0624   -4.66396   23.38254 
 6                    -0.3558   -4.77053   23.38254 
 6                     1.06624  -4.66816   25.8513 
 6                    -0.35895  -4.77526   25.8513 
 6                     1.06198  -4.66393   28.32023 
 6                    -0.35533  -4.77043   28.32024 
 6                     1.06268  -4.65704   30.78389 
 6                    -0.35701  -4.76371   30.7839 
 6                     1.06819  -4.66067   33.2627 
 6                    -0.36181  -4.76803   33.2627 
 6                     1.04821  -4.80859   35.68581 
 6                    -0.31985  -4.91129   35.68582 
 6                     3.03068  -3.87754  -0.02288 
 6                     1.84255  -4.56351  -0.02289 
 6                     2.9845   -3.73553   2.40022 
 6                     1.74258  -4.45253   2.40022 
 6                     2.97802  -3.73467   4.87903 
 6                     1.74505  -4.4465    4.87903 
 6                     2.98042  -3.7412    7.34268 
 6                     1.74949  -4.45183   7.34269 
 6                     2.98611  -3.74317   9.81161 
 6                     1.74835  -4.45774   9.81162 
 6                     2.98084  -3.74105   12.28038 
 6                     1.74914  -4.45212   12.28038 
 6                     2.9833   -3.74197   14.74526 
 6                     1.74871  -4.4547    14.74526 
 6                     2.98437  -3.74236   17.21591 
 6                     1.74852  -4.45582   17.21591 
 6                     2.9805   -3.741     19.68181 
 6                     1.74927  -4.4518    19.68181 
 6                     2.98516  -3.74257   22.14899 
 6                     1.74831  -4.45662   22.14899 
 6                     2.98213  -3.74164   24.61919 
 6                     1.74903  -4.45352   24.61919 
 6                     2.98219  -3.74199   27.08325 
 6                     1.74931  -4.45376   27.08324 
 6                     2.98456  -3.74073   29.55404 
 6                     1.74704  -4.45519   29.55404 
 6                     2.96806  -3.72735   32.02135 
 6                     1.74372  -4.43425   32.02134 
 6                     3.01747  -3.7825    34.48906 
 6                     1.76682  -4.5046    34.48905 
 6                     4.35963  -2.09853   1.17385 
 6                     3.54626  -3.29182   1.17386 
 6                     4.29126  -2.07029   3.64156 
 6                     3.49499  -3.23846   3.64157 
 6                     4.31198  -2.0752    6.10886 
 6                     3.50715  -3.25594   6.10887 
 6                     4.31041  -2.07738   8.57966 
 6                     3.50859  -3.25368   8.57967 
 6                     4.31021  -2.0771    11.04372 
 6                     3.50825  -3.25358   11.04372 
 6                     4.31337  -2.07662   13.51392 
 6                     3.50896  -3.2567    13.51392 
 6                     4.30849  -2.07723   15.9811 
 6                     3.50774  -3.25193   15.98111 
 6                     4.31258  -2.07679   18.447 
 6                     3.50882  -3.25589   18.447 
 6                     4.31144  -2.0769    20.91766 
 6                     3.50851  -3.2548    20.91766 
 6                     4.30883  -2.07713   23.38255 
 6                     3.50777  -3.25228   23.38254 
 6                     4.31449  -2.07675   25.85131 
 6                     3.5095   -3.2577    25.8513 
 6                     4.30849  -2.07744   28.32025 
 6                     3.50795  -3.25187   28.32024 
 6                     4.30347  -2.07259   30.78391 
 6                     3.50161  -3.24899   30.7839 
 6                     4.3096   -2.07054   33.26271 
 6                     3.50193  -3.25548   33.2627 
 6                     4.4126   -2.17835   35.68583 
 6                     3.63993  -3.31199   35.68583 
 6                     4.92079  -0.04797  -0.02294 
 6                     4.7164   -1.40458  -0.02291 
 6                     4.78102   0.00452   2.40018 
 6                     4.5674   -1.41349   2.40019 
 6                     4.77638   0.00002   4.87899 
 6                     4.56429  -1.40778   4.879 
 6                     4.78303  -0.00218   7.34266 
 6                     4.57128  -1.40763   7.34267 
 6                     4.78815   0.00103   9.8116 
 6                     4.57521  -1.41222   9.8116 
 6                     4.78323  -0.00178   12.28036 
 6                     4.57133  -1.4081    12.28037 
 6                     4.78549  -0.00043   14.74525 
 6                     4.57309  -1.41005   14.74525 
 6                     4.78647   0.00015   17.21591 
 6                     4.57385  -1.4109    17.21591 
 6                     4.78299  -0.00202   19.68181 
 6                     4.57117  -1.40781   19.68181 
 6                     4.78712   0.00064   22.149 
 6                     4.57433  -1.41157   22.149 
 6                     4.78448  -0.00115   24.61921 
 6                     4.57234  -1.40907   24.6192 
 6                     4.78477  -0.00131   27.08327 
 6                     4.57268  -1.409     27.08326 
 6                     4.78522   0.00133   29.55407 
 6                     4.57233  -1.41165   29.55406 
 6                     4.76442  -0.00322   32.02139 
 6                     4.55379  -1.40117   32.02137 
 6                     4.8382    0.00102   34.4891 
 6                     4.62305  -1.427     34.48908 
 1                     4.38132   2.6152    36.6337 
 1                     5.09288   0.30754   36.63368 
 1                     2.81313   4.25767  -0.97077 
 1                     4.45532   2.48715  -0.97078 
 1                     0.6874    5.05669   36.6336 
 1                     2.93541   4.17462   36.63365 
 1                    -1.57458   4.85406  -0.97065 
 1                     0.8335    5.0348   -0.97069 
 1                    -3.52468   3.6902    36.63356 
 1                    -1.43338   4.89769   36.63359 
 1                    -4.77623   1.79513  -0.9707 
 1                    -3.41615   3.79053  -0.97069 
 1                    -5.08234  -0.45502   36.63364 
 1                    -4.72249   1.93285   36.63361 
 1                    -4.38132  -2.6152   -0.97078 
 1                    -5.09287  -0.30754  -0.97076 
 1                    -2.81312  -4.25767   36.63369 
 1                    -4.45532  -2.48715   36.6337 
 1                    -0.6874   -5.05669  -0.97067 
 1                    -2.9354   -4.17462  -0.97073 
 1                     1.57458  -4.85406   36.63358 
 1                    -0.8335   -5.0348    36.63361 
 1                     3.52468  -3.6902   -0.97064 
 1                     1.43338  -4.89769  -0.97067 
 1                     4.77623  -1.79513   36.63362 
 1                     3.41615  -3.79053   36.63362 
 1                     5.08234   0.45502  -0.97072 
 1                     4.72249  -1.93285  -0.97069 
 
 Symmetry turned off by external request.
 Stoichiometry    C420H28
 Framework group  C1[X(C420H28)]
 Deg. of freedom  1338
 Full point group                 C1      NOp   1
                          Input orientation:                          
 ---------------------------------------------------------------------
 Center     Atomic      Atomic             Coordinates (Angstroms)
 Number     Number       Type             X           Y           Z
 ---------------------------------------------------------------------
      1          6           0        4.358738    2.100325    1.173786
      2          6           0        4.784362    0.720335    1.173801
      3          6           0        4.294182    2.064536    3.641516
      4          6           0        4.710758    0.713554    3.641525
      5          6           0        4.310985    2.077664    6.108836
      6          6           0        4.732030    0.712156    6.108842
      7          6           0        4.311734    2.075077    8.579645
      8          6           0        4.731207    0.714691    8.579648
      9          6           0        4.311407    2.075091   11.043709
     10          6           0        4.730947    0.714473   11.043709
     11          6           0        4.313016    2.077847   13.513917
     12          6           0        4.733832    0.713083   13.513917
     13          6           0        4.310454    2.073650   15.981105
     14          6           0        4.729360    0.715095   15.981104
     15          6           0        4.312651    2.077113   18.447005
     16          6           0        4.733124    0.713463   18.447004
     17          6           0        4.312031    2.076158   20.917666
     18          6           0        4.732074    0.713904   20.917666
     19          6           0        4.310577    2.073969   23.382552
     20          6           0        4.729642    0.714900   23.382550
     21          6           0        4.313798    2.078638   25.851320
     22          6           0        4.734924    0.712869   25.851319
     23          6           0        4.310584    2.073527   28.320260
     24          6           0        4.729383    0.715302   28.320258
     25          6           0        4.303658    2.072650   30.783936
     26          6           0        4.723154    0.712148   30.783931
     27          6           0        4.305835    2.078734   33.262754
     28          6           0        4.728388    0.708370   33.262750
     29          6           0        4.454211    2.091978   35.685905
     30          6           0        4.858487    0.780979   35.685892
     31          6           0        3.105725    3.817790   -0.022984
     32          6           0        4.038682    2.811937   -0.022988
     33          6           0        2.977829    3.741464    2.400158
     34          6           0        3.952973    2.690029    2.400151
     35          6           0        2.978539    3.735040    4.878985
     36          6           0        3.946665    2.691179    4.878979
     37          6           0        2.984413    3.738835    7.342661
     38          6           0        3.950923    2.696722    7.342655
     39          6           0        2.985094    3.744820    9.811602
     40          6           0        3.956974    2.696923    9.811598
     41          6           0        2.984223    3.739210   12.280372
     42          6           0        3.951342    2.696456   12.280367
     43          6           0        2.984585    3.741803   14.745255
     44          6           0        3.953969    2.696606   14.745251
     45          6           0        2.984732    3.742927   17.215916
     46          6           0        3.955110    2.696660   17.215914
     47          6           0        2.984264    3.738854   19.681813
     48          6           0        3.951018    2.696496   19.681813
     49          6           0        2.984756    3.743744   22.148999
     50          6           0        3.955924    2.696621   22.148999
     51          6           0        2.984513    3.740571   24.619205
     52          6           0        3.952730    2.696627   24.619207
     53          6           0        2.984823    3.740711   27.083264
     54          6           0        3.952878    2.696945   27.083266
     55          6           0        2.983037    3.742731   29.554071
     56          6           0        3.954733    2.695034   29.554075
     57          6           0        2.973610    3.723650   32.021387
     58          6           0        3.934977    2.687098   32.021392
     59          6           0        3.016227    3.783959   34.489112
     60          6           0        3.998276    2.725141   34.489124
     61          6           0        1.075852    4.717909    1.173845
     62          6           0        2.420178    4.190357    1.173805
     63          6           0        1.063651    4.644976    3.641558
     64          6           0        2.379729    4.128643    3.641533
     65          6           0        1.063870    4.666251    6.108867
     66          6           0        2.394110    4.144382    6.108851
     67          6           0        1.066361    4.665180    8.579670
     68          6           0        2.391614    4.145282    8.579659
     69          6           0        1.066143    4.664903   11.043726
     70          6           0        2.391622    4.144920   11.043719
     71          6           0        1.064985    4.667861   13.513929
     72          6           0        2.394505    4.146295   13.513925
     73          6           0        1.066669    4.663229   15.981113
     74          6           0        2.390140    4.144039   15.981110
     75          6           0        1.065327    4.667104   18.447008
     76          6           0        2.393762    4.145965   18.447007
     77          6           0        1.065689    4.666025   20.917666
     78          6           0        2.392763    4.145419   20.917667
     79          6           0        1.066498    4.663531   23.382546
     80          6           0        2.390469    4.144143   23.382548
     81          6           0        1.064854    4.668978   25.851310
     82          6           0        2.395352    4.147024   25.851314
     83          6           0        1.066854    4.663297   28.320245
     84          6           0        2.389998    4.144223   28.320252
     85          6           0        1.063217    4.657349   30.783912
     86          6           0        2.388580    4.137409   30.783923
     87          6           0        1.059788    4.662878   33.262720
     88          6           0        2.394752    4.139137   33.262737
     89          6           0        1.141929    4.787361   35.685835
     90          6           0        2.419049    4.286249   35.685863
     91          6           0       -1.048212    4.808592   -0.022889
     92          6           0        0.319855    4.911290   -0.022895
     93          6           0       -1.068185    4.660671    2.400224
     94          6           0        0.361810    4.768025    2.400222
     95          6           0       -1.062679    4.657036    4.879034
     96          6           0        0.357010    4.763708    4.879022
     97          6           0       -1.061980    4.663926    7.342695
     98          6           0        0.355335    4.770435    7.342686
     99          6           0       -1.066241    4.668158    9.811624
    100          6           0        0.358946    4.775256    9.811620
    101          6           0       -1.062401    4.663957   12.280386
    102          6           0        0.355796    4.770532   12.280383
    103          6           0       -1.064207    4.665847   14.745264
    104          6           0        0.357313    4.772668   14.745262
    105          6           0       -1.064996    4.666658   17.215921
    106          6           0        0.357980    4.773588   17.215919
    107          6           0       -1.062103    4.663749   19.681815
    108          6           0        0.355558    4.770283   19.681814
    109          6           0       -1.065619    4.667188   22.148997
    110          6           0        0.358519    4.774205   22.148997
    111          6           0       -1.063287    4.665028   24.619197
    112          6           0        0.356526    4.771721   24.619198
    113          6           0       -1.063200    4.665376   27.083250
    114          6           0        0.356373    4.772055   27.083254
    115          6           0       -1.065890    4.665264   29.554046
    116          6           0        0.359025    4.772338   29.554052
    117          6           0       -1.056858    4.646050   32.021354
    118          6           0        0.352903    4.751952   32.021356
    119          6           0       -1.077498    4.717153   34.489077
    120          6           0        0.362577    4.825259   34.489066
    121          6           0       -3.017468    3.782498    1.173869
    122          6           0       -1.766822    4.504600    1.173875
    123          6           0       -2.968058    3.727353    3.641578
    124          6           0       -1.743719    4.434246    3.641585
    125          6           0       -2.984557    3.740728    6.108880
    126          6           0       -1.747042    4.455186    6.108887
    127          6           0       -2.982192    3.741995    8.579678
    128          6           0       -1.749307    4.453762    8.579682
    129          6           0       -2.982124    3.741643   11.043731
    130          6           0       -1.749025    4.453521   11.043734
    131          6           0       -2.985163    3.742574   13.513934
    132          6           0       -1.748306    4.456617   13.513935
    133          6           0       -2.980502    3.741003   15.981117
    134          6           0       -1.749268    4.451798   15.981117
    135          6           0       -2.984364    3.742364   18.447012
    136          6           0       -1.748515    4.455822   18.447011
    137          6           0       -2.983295    3.741973   20.917670
    138          6           0       -1.748711    4.454702   20.917667
    139          6           0       -2.980839    3.741051   23.382548
    140          6           0       -1.749142    4.452120   23.382545
    141          6           0       -2.986109    3.743165   25.851310
    142          6           0       -1.748345    4.457739   25.851306
    143          6           0       -2.980419    3.741199   28.320240
    144          6           0       -1.749492    4.451831   28.320236
    145          6           0       -2.978021    3.734666   30.783899
    146          6           0       -1.745046    4.446503   30.783896
    147          6           0       -2.984498    3.735525   33.262704
    148          6           0       -1.742583    4.452527   33.262703
    149          6           0       -3.030674    3.877545   35.685804
    150          6           0       -1.842551    4.563509   35.685812
    151          6           0       -4.412601    2.178354   -0.022910
    152          6           0       -3.639931    3.311989   -0.022903
    153          6           0       -4.309601    2.070540    2.400211
    154          6           0       -3.501931    3.255483    2.400221
    155          6           0       -4.303467    2.072585    4.879011
    156          6           0       -3.501604    3.248993    4.879023
    157          6           0       -4.308484    2.077438    7.342678
    158          6           0       -3.507944    3.251865    7.342688
    159          6           0       -4.314492    2.076751    9.811614
    160          6           0       -3.509494    3.257699    9.811621
    161          6           0       -4.308827    2.077135   12.280379
    162          6           0       -3.507771    3.252282   12.280384
    163          6           0       -4.311444    2.076902   14.745262
    164          6           0       -3.508507    3.254800   14.745264
    165          6           0       -4.312576    2.076789   17.215922
    166          6           0       -3.508815    3.255895   17.215922
    167          6           0       -4.308492    2.077233   19.681820
    168          6           0       -3.507735    3.251932   19.681818
    169          6           0       -4.313372    2.076625   22.149005
    170          6           0       -3.508958    3.256696   22.149001
    171          6           0       -4.310212    2.077096   24.619208
    172          6           0       -3.508246    3.253584   24.619202
    173          6           0       -4.310409    2.077378   27.083265
    174          6           0       -3.508590    3.253675   27.083256
    175          6           0       -4.311975    2.075204   29.554064
    176          6           0       -3.507147    3.255937   29.554052
    177          6           0       -4.291253    2.070294   32.021366
    178          6           0       -3.494990    3.238457   32.021354
    179          6           0       -4.359633    2.098531   34.489075
    180          6           0       -3.546256    3.291820   34.489061
    181          6           0       -4.838201   -0.001016    1.173822
    182          6           0       -4.623053    1.426996    1.173844
    183          6           0       -4.764419    0.003216    3.641538
    184          6           0       -4.553784    1.401174    3.641554
    185          6           0       -4.785219   -0.001332    6.108851
    186          6           0       -4.572326    1.411649    6.108862
    187          6           0       -4.784772    0.001314    8.579657
    188          6           0       -4.572678    1.408998    8.579665
    189          6           0       -4.784481    0.001150   11.043719
    190          6           0       -4.572343    1.409072   11.043723
    191          6           0       -4.787120   -0.000644   13.513926
    192          6           0       -4.574331    1.411566   13.513929
    193          6           0       -4.782991    0.002019   15.981113
    194          6           0       -4.571171    1.407807   15.981115
    195          6           0       -4.786467   -0.000154   18.447013
    196          6           0       -4.573849    1.410903   18.447013
    197          6           0       -4.785491    0.000435   20.917675
    198          6           0       -4.573092    1.410048   20.917673
    199          6           0       -4.783227    0.001775   23.382560
    200          6           0       -4.571331    1.408095   23.382556
    201          6           0       -4.788146   -0.001033   25.851328
    202          6           0       -4.575207    1.412218   25.851321
    203          6           0       -4.783024    0.002184   28.320266
    204          6           0       -4.571274    1.407632   28.320256
    205          6           0       -4.776379   -0.000018   30.783937
    206          6           0       -4.564289    1.407784   30.783921
    207          6           0       -4.781018   -0.004522   33.262747
    208          6           0       -4.567393    1.413494   33.262729
    209          6           0       -4.920788    0.047969   35.685858
    210          6           0       -4.716396    1.404575   35.685836
    211          6           0       -4.454210   -2.091977   -0.022982
    212          6           0       -4.858486   -0.780979   -0.022968
    213          6           0       -4.305834   -2.078734    2.400170
    214          6           0       -4.728387   -0.708370    2.400174
    215          6           0       -4.303657   -2.072650    4.878988
    216          6           0       -4.723153   -0.712148    4.878993
    217          6           0       -4.310583   -2.073527    7.342664
    218          6           0       -4.729382   -0.715302    7.342666
    219          6           0       -4.313797   -2.078638    9.811604
    220          6           0       -4.734923   -0.712869    9.811606
    221          6           0       -4.310576   -2.073969   12.280373
    222          6           0       -4.729641   -0.714900   12.280374
    223          6           0       -4.312030   -2.076158   14.745258
    224          6           0       -4.732073   -0.713904   14.745259
    225          6           0       -4.312650   -2.077113   17.215919
    226          6           0       -4.733122   -0.713463   17.215921
    227          6           0       -4.310452   -2.073650   19.681820
    228          6           0       -4.729359   -0.715095   19.681820
    229          6           0       -4.313015   -2.077847   22.149008
    230          6           0       -4.733830   -0.713082   22.149008
    231          6           0       -4.311406   -2.075090   24.619215
    232          6           0       -4.730946   -0.714473   24.619215
    233          6           0       -4.311733   -2.075077   27.083279
    234          6           0       -4.731205   -0.714691   27.083276
    235          6           0       -4.310983   -2.077664   29.554089
    236          6           0       -4.732029   -0.712156   29.554082
    237          6           0       -4.294180   -2.064535   32.021408
    238          6           0       -4.710756   -0.713553   32.021399
    239          6           0       -4.358737   -2.100325   34.489138
    240          6           0       -4.784361   -0.720335   34.489123
    241          6           0       -3.016225   -3.783959    1.173812
    242          6           0       -3.998275   -2.725141    1.173800
    243          6           0       -2.973609   -3.723650    3.641537
    244          6           0       -3.934976   -2.687098    3.641532
    245          6           0       -2.983036   -3.742731    6.108853
    246          6           0       -3.954732   -2.695034    6.108849
    247          6           0       -2.984822   -3.740711    8.579660
    248          6           0       -3.952877   -2.696945    8.579658
    249          6           0       -2.984512   -3.740571   11.043719
    250          6           0       -3.952729   -2.696627   11.043717
    251          6           0       -2.984754   -3.743744   13.513926
    252          6           0       -3.955923   -2.696621   13.513925
    253          6           0       -2.984262   -3.738854   15.981111
    254          6           0       -3.951017   -2.696496   15.981112
    255          6           0       -2.984731   -3.742927   18.447009
    256          6           0       -3.955108   -2.696659   18.447010
    257          6           0       -2.984584   -3.741803   20.917670
    258          6           0       -3.953967   -2.696606   20.917673
    259          6           0       -2.984222   -3.739210   23.382553
    260          6           0       -3.951340   -2.696455   23.382557
    261          6           0       -2.985092   -3.744820   25.851322
    262          6           0       -3.956972   -2.696923   25.851327
    263          6           0       -2.984411   -3.738834   28.320263
    264          6           0       -3.950921   -2.696722   28.320269
    265          6           0       -2.978538   -3.735040   30.783939
    266          6           0       -3.946664   -2.691179   30.783945
    267          6           0       -2.977827   -3.741464   33.262766
    268          6           0       -3.952972   -2.690029   33.262773
    269          6           0       -3.105723   -3.817789   35.685908
    270          6           0       -4.038681   -2.811937   35.685912
    271          6           0       -1.141928   -4.787361   -0.022911
    272          6           0       -2.419048   -4.286249   -0.022939
    273          6           0       -1.059786   -4.662878    2.400204
    274          6           0       -2.394750   -4.139137    2.400186
    275          6           0       -1.063216   -4.657349    4.879012
    276          6           0       -2.388579   -4.137409    4.879001
    277          6           0       -1.066853   -4.663297    7.342679
    278          6           0       -2.389997   -4.144223    7.342672
    279          6           0       -1.064853   -4.668978    9.811614
    280          6           0       -2.395351   -4.147024    9.811610
    281          6           0       -1.066496   -4.663531   12.280378
    282          6           0       -2.390468   -4.144143   12.280376
    283          6           0       -1.065688   -4.666025   14.745258
    284          6           0       -2.392762   -4.145419   14.745258
    285          6           0       -1.065326   -4.667103   17.215916
    286          6           0       -2.393761   -4.145964   17.215918
    287          6           0       -1.066668   -4.663228   19.681812
    288          6           0       -2.390139   -4.144039   19.681814
    289          6           0       -1.064983   -4.667861   22.148995
    290          6           0       -2.394503   -4.146295   22.148999
    291          6           0       -1.066142   -4.664902   24.619198
    292          6           0       -2.391620   -4.144919   24.619205
    293          6           0       -1.066360   -4.665180   27.083255
    294          6           0       -2.391613   -4.145282   27.083265
    295          6           0       -1.063869   -4.666251   29.554057
    296          6           0       -2.394108   -4.144381   29.554073
    297          6           0       -1.063650   -4.644976   32.021366
    298          6           0       -2.379728   -4.128642   32.021391
    299          6           0       -1.075851   -4.717909   34.489078
    300          6           0       -2.420177   -4.190357   34.489118
    301          6           0        1.077500   -4.717152    1.173846
    302          6           0       -0.362575   -4.825259    1.173857
    303          6           0        1.056859   -4.646050    3.641570
    304          6           0       -0.352902   -4.751952    3.641568
    305          6           0        1.065892   -4.665264    6.108878
    306          6           0       -0.359023   -4.772338    6.108872
    307          6           0        1.063201   -4.665376    8.579674
    308          6           0       -0.356371   -4.772055    8.579671
    309          6           0        1.063288   -4.665028   11.043727
    310          6           0       -0.356524   -4.771721   11.043726
    311          6           0        1.065621   -4.667188   13.513927
    312          6           0       -0.358518   -4.774205   13.513928
    313          6           0        1.062105   -4.663749   15.981109
    314          6           0       -0.355556   -4.770282   15.981110
    315          6           0        1.064997   -4.666658   18.447004
    316          6           0       -0.357979   -4.773588   18.447005
    317          6           0        1.064208   -4.665847   20.917660
    318          6           0       -0.357312   -4.772668   20.917662
    319          6           0        1.062402   -4.663957   23.382539
    320          6           0       -0.355795   -4.770532   23.382542
    321          6           0        1.066242   -4.668157   25.851300
    322          6           0       -0.358945   -4.775256   25.851305
    323          6           0        1.061981   -4.663926   28.320229
    324          6           0       -0.355333   -4.770434   28.320238
    325          6           0        1.062681   -4.657036   30.783890
    326          6           0       -0.357008   -4.763708   30.783902
    327          6           0        1.068186   -4.660670   33.262700
    328          6           0       -0.361808   -4.768025   33.262702
    329          6           0        1.048213   -4.808592   35.685813
    330          6           0       -0.319854   -4.911290   35.685819
    331          6           0        3.030675   -3.877544   -0.022880
    332          6           0        1.842552   -4.563508   -0.022889
    333          6           0        2.984499   -3.735525    2.400220
    334          6           0        1.742584   -4.452527    2.400221
    335          6           0        2.978022   -3.734666    4.879025
    336          6           0        1.745047   -4.446503    4.879028
    337          6           0        2.980421   -3.741199    7.342684
    338          6           0        1.749494   -4.451831    7.342688
    339          6           0        2.986110   -3.743165    9.811614
    340          6           0        1.748347   -4.457739    9.811618
    341          6           0        2.980841   -3.741051   12.280376
    342          6           0        1.749144   -4.452120   12.280379
    343          6           0        2.983296   -3.741973   14.745255
    344          6           0        1.748712   -4.454702   14.745257
    345          6           0        2.984366   -3.742364   17.215913
    346          6           0        1.748517   -4.455822   17.215914
    347          6           0        2.980503   -3.741002   19.681808
    348          6           0        1.749270   -4.451797   19.681808
    349          6           0        2.985164   -3.742573   22.148991
    350          6           0        1.748307   -4.456617   22.148990
    351          6           0        2.982125   -3.741642   24.619193
    352          6           0        1.749027   -4.453521   24.619190
    353          6           0        2.982193   -3.741994   27.083246
    354          6           0        1.749308   -4.453762   27.083242
    355          6           0        2.984558   -3.740728   29.554044
    356          6           0        1.747043   -4.455185   29.554037
    357          6           0        2.968059   -3.727353   32.021346
    358          6           0        1.743720   -4.434246   32.021339
    359          6           0        3.017469   -3.782497   34.489055
    360          6           0        1.766823   -4.504600   34.489048
    361          6           0        4.359635   -2.098530    1.173849
    362          6           0        3.546257   -3.291820    1.173862
    363          6           0        4.291255   -2.070293    3.641558
    364          6           0        3.494991   -3.238457    3.641570
    365          6           0        4.311976   -2.075204    6.108860
    366          6           0        3.507149   -3.255937    6.108872
    367          6           0        4.310411   -2.077378    8.579659
    368          6           0        3.508592   -3.253675    8.579668
    369          6           0        4.310213   -2.077096   11.043716
    370          6           0        3.508247   -3.253584   11.043722
    371          6           0        4.313374   -2.076625   13.513920
    372          6           0        3.508959   -3.256696   13.513924
    373          6           0        4.308493   -2.077232   15.981105
    374          6           0        3.507736   -3.251931   15.981107
    375          6           0        4.312577   -2.076789   18.447003
    376          6           0        3.508816   -3.255894   18.447002
    377          6           0        4.311445   -2.076901   20.917662
    378          6           0        3.508508   -3.254800   20.917660
    379          6           0        4.308828   -2.077134   23.382545
    380          6           0        3.507772   -3.252281   23.382541
    381          6           0        4.314493   -2.076751   25.851311
    382          6           0        3.509495   -3.257699   25.851303
    383          6           0        4.308485   -2.077437   28.320246
    384          6           0        3.507946   -3.251865   28.320236
    385          6           0        4.303468   -2.072585   30.783913
    386          6           0        3.501605   -3.248993   30.783901
    387          6           0        4.309602   -2.070539   33.262713
    388          6           0        3.501932   -3.255483   33.262703
    389          6           0        4.412602   -2.178353   35.685834
    390          6           0        3.639933   -3.311988   35.685827
    391          6           0        4.920789   -0.047968   -0.022935
    392          6           0        4.716397   -1.404575   -0.022912
    393          6           0        4.781019    0.004522    2.400177
    394          6           0        4.567395   -1.413493    2.400194
    395          6           0        4.776380    0.000018    4.878987
    396          6           0        4.564291   -1.407784    4.879003
    397          6           0        4.783026   -0.002184    7.342658
    398          6           0        4.571276   -1.407632    7.342668
    399          6           0        4.788147    0.001033    9.811596
    400          6           0        4.575209   -1.412218    9.811603
    401          6           0        4.783229   -0.001775   12.280365
    402          6           0        4.571333   -1.408095   12.280369
    403          6           0        4.785492   -0.000434   14.745250
    404          6           0        4.573093   -1.410048   14.745251
    405          6           0        4.786469    0.000154   17.215911
    406          6           0        4.573851   -1.410903   17.215912
    407          6           0        4.782992   -0.002019   19.681811
    408          6           0        4.571173   -1.407807   19.681810
    409          6           0        4.787121    0.000644   22.148999
    410          6           0        4.574332   -1.411566   22.148996
    411          6           0        4.784482   -0.001150   24.619205
    412          6           0        4.572344   -1.409071   24.619201
    413          6           0        4.784773   -0.001314   27.083267
    414          6           0        4.572679   -1.408998   27.083260
    415          6           0        4.785220    0.001333   29.554073
    416          6           0        4.572327   -1.411649   29.554062
    417          6           0        4.764420   -0.003216   32.021386
    418          6           0        4.553785   -1.401174   32.021370
    419          6           0        4.838202    0.001016   34.489102
    420          6           0        4.623054   -1.426996   34.489080
    421          1           0        4.381318    2.615197   36.633702
    422          1           0        5.092875    0.307537   36.633681
    423          1           0        2.813125    4.257666   -0.970765
    424          1           0        4.455323    2.487147   -0.970777
    425          1           0        0.687398    5.056686   36.633598
    426          1           0        2.935405    4.174623   36.633653
    427          1           0       -1.574579    4.854056   -0.970653
    428          1           0        0.833497    5.034796   -0.970685
    429          1           0       -3.524681    3.690198   36.633565
    430          1           0       -1.433376    4.897688   36.633595
    431          1           0       -4.776233    1.795126   -0.970698
    432          1           0       -3.416146    3.790530   -0.970693
    433          1           0       -5.082336   -0.455015   36.633643
    434          1           0       -4.722486    1.932852   36.633610
    435          1           0       -4.381317   -2.615196   -0.970779
    436          1           0       -5.092874   -0.307537   -0.970757
    437          1           0       -2.813124   -4.257666   36.633689
    438          1           0       -4.455322   -2.487147   36.633701
    439          1           0       -0.687397   -5.056686   -0.970674
    440          1           0       -2.935403   -4.174623   -0.970729
    441          1           0        1.574580   -4.854056   36.633577
    442          1           0       -0.833496   -5.034796   36.633609
    443          1           0        3.524683   -3.690198   -0.970641
    444          1           0        1.433377   -4.897688   -0.970671
    445          1           0        4.776234   -1.795126   36.633622
    446          1           0        3.416147   -3.790530   36.633617
    447          1           0        5.082337    0.455015   -0.970719
    448          1           0        4.722487   -1.932852   -0.970687
 ---------------------------------------------------------------------
 Rotational constants (GHZ):           0.0043320           0.0007863           0.0007862
 Standard basis: 6-311G(d) (5D, 7F)
  7644 basis functions, 13580 primitive gaussians,  8064 cartesian basis functions
  1274 alpha electrons     1274 beta electrons
       nuclear repulsion energy    165447.5607498632 Hartrees.
 NAtoms=  448 NActive=  448 NUniq=  448 SFac= 1.00D+00 NAtFMM=   60 NAOKFM=T Big=T
 Integral buffers will be    131072 words long.
 Raffenetti 2 integral format.
 Two-electron integral symmetry is turned off.
 One-electron integrals computed using PRISM.
 NBasis=  7644 RedAO= T EigKep=  3.75D-06  NBF=  7644
 NBsUse=  7644 1.00D-06 EigRej= -1.00D+00 NBFU=  7644
 ExpMin= 1.03D-01 ExpMax= 4.56D+03 ExpMxC= 6.82D+02 IAcc=3 IRadAn=         5 AccDes= 0.00D+00
 Harris functional with IExCor=  402 and IRadAn=       5 diagonalized for initial guess.
 HarFok:  IExCor=  402 AccDes= 0.00D+00 IRadAn=         5 IDoV= 1 UseB2=F ITyADJ=14
 ICtDFT=  3500011 ScaDFX=  1.000000  1.000000  1.000000  1.000000
 FoFCou: FMM=F IPFlag=           0 FMFlag=      100000 FMFlg1=        2001
         NFxFlg=           0 DoJE=T BraDBF=F KetDBF=T FulRan=T
         wScrn=  0.000000 ICntrl=       500 IOpCl=  0 I1Cent=   200000004 NGrid=           0
         NMat0=    1 NMatS0=      1 NMatT0=    0 NMatD0=    1 NMtDS0=    0 NMtDT0=    0
 Symmetry not used in FoFCou.
 Requested convergence on RMS density matrix=1.00D-08 within 128 cycles.
 Requested convergence on MAX density matrix=1.00D-06.
 Requested convergence on             energy=1.00D-06.
 No special actions if energy rises.
 Integral accuracy reduced to 1.0D-05 until final iterations.
 Problem detected with inexpensive integrals.
 Switching to full accuracy and repeating last cycle.
 EnCoef did     5 forward-backward iterations
 SCF Done:  E(RB3LYP) =  -16027.3138983     A.U. after   16 cycles
            NFock= 16  Conv=0.64D-08     -V/T= 2.0042
 Hyperfine terms turned off by default for NAtoms > 100.

 **********************************************************************

            Population analysis using the SCF Density.

 **********************************************************************

 Alpha  occ. eigenvalues --  -10.21241 -10.21241 -10.21240 -10.21238 -10.21238
 Alpha  occ. eigenvalues --  -10.21234 -10.21233 -10.21233 -10.21233 -10.21233
 Alpha  occ. eigenvalues --  -10.21230 -10.21230 -10.21228 -10.21228 -10.21228
 Alpha  occ. eigenvalues --  -10.21226 -10.21226 -10.21225 -10.21225 -10.21225
 Alpha  occ. eigenvalues --  -10.21225 -10.21220 -10.21220 -10.21220 -10.21219
 Alpha  occ. eigenvalues --  -10.21219 -10.21218 -10.21218 -10.21218 -10.21218
 Alpha  occ. eigenvalues --  -10.21217 -10.21217 -10.21213 -10.21213 -10.21213
 Alpha  occ. eigenvalues --  -10.21213 -10.21211 -10.21211 -10.21211 -10.21210
 Alpha  occ. eigenvalues --  -10.21210 -10.21210 -10.21210 -10.21209 -10.21209
 Alpha  occ. eigenvalues --  -10.21208 -10.21208 -10.21206 -10.21205 -10.21205
 Alpha  occ. eigenvalues --  -10.21204 -10.21204 -10.21204 -10.21204 -10.21204
 Alpha  occ. eigenvalues --  -10.21203 -10.21202 -10.21202 -10.21202 -10.21201
 Alpha  occ. eigenvalues --  -10.21201 -10.21201 -10.21201 -10.21198 -10.21198
 Alpha  occ. eigenvalues --  -10.21198 -10.21197 -10.21197 -10.21197 -10.21192
 Alpha  occ. eigenvalues --  -10.21192 -10.21192 -10.21192 -10.21192 -10.21192
 Alpha  occ. eigenvalues --  -10.21192 -10.21192 -10.21192 -10.21191 -10.21191
 Alpha  occ. eigenvalues --  -10.21191 -10.21189 -10.21189 -10.21185 -10.21185
 Alpha  occ. eigenvalues --  -10.21185 -10.21185 -10.21185 -10.21181 -10.21181
 Alpha  occ. eigenvalues --  -10.21181 -10.21181 -10.21180 -10.21179 -10.21178
 Alpha  occ. eigenvalues --  -10.21178 -10.21177 -10.21177 -10.21171 -10.21171
 Alpha  occ. eigenvalues --  -10.21171 -10.21170 -10.21170 -10.21170 -10.21170
 Alpha  occ. eigenvalues --  -10.21170 -10.21168 -10.21168 -10.21168 -10.21168
 Alpha  occ. eigenvalues --  -10.21168 -10.21168 -10.21166 -10.21165 -10.21165
 Alpha  occ. eigenvalues --  -10.21164 -10.21164 -10.21164 -10.21164 -10.21163
 Alpha  occ. eigenvalues --  -10.21162 -10.21162 -10.21159 -10.21159 -10.21159
 Alpha  occ. eigenvalues --  -10.21159 -10.21159 -10.21159 -10.21159 -10.21159
 Alpha  occ. eigenvalues --  -10.21158 -10.21158 -10.21157 -10.21155 -10.21155
 Alpha  occ. eigenvalues --  -10.21154 -10.21154 -10.21153 -10.21153 -10.21150
 Alpha  occ. eigenvalues --  -10.21150 -10.21150 -10.21149 -10.21149 -10.21149
 Alpha  occ. eigenvalues --  -10.21149 -10.21149 -10.21148 -10.21146 -10.21146
 Alpha  occ. eigenvalues --  -10.21144 -10.21144 -10.21143 -10.21143 -10.21142
 Alpha  occ. eigenvalues --  -10.21142 -10.21142 -10.21141 -10.21141 -10.21140
 Alpha  occ. eigenvalues --  -10.21140 -10.21138 -10.21138 -10.21138 -10.21138
 Alpha  occ. eigenvalues --  -10.21137 -10.21137 -10.21137 -10.21137 -10.21136
 Alpha  occ. eigenvalues --  -10.21136 -10.21136 -10.21136 -10.21136 -10.21136
 Alpha  occ. eigenvalues --  -10.21135 -10.21135 -10.21135 -10.21133 -10.21133
 Alpha  occ. eigenvalues --  -10.21132 -10.21132 -10.21130 -10.21129 -10.21129
 Alpha  occ. eigenvalues --  -10.21129 -10.21128 -10.21128 -10.21128 -10.21128
 Alpha  occ. eigenvalues --  -10.21127 -10.21127 -10.21126 -10.21124 -10.21124
 Alpha  occ. eigenvalues --  -10.21123 -10.21121 -10.21121 -10.21121 -10.21121
 Alpha  occ. eigenvalues --  -10.21118 -10.21118 -10.21118 -10.21118 -10.21118
 Alpha  occ. eigenvalues --  -10.21118 -10.21117 -10.21117 -10.21115 -10.21115
 Alpha  occ. eigenvalues --  -10.21113 -10.21113 -10.21110 -10.21110 -10.21110
 Alpha  occ. eigenvalues --  -10.21110 -10.21109 -10.21109 -10.21109 -10.21109
 Alpha  occ. eigenvalues --  -10.21107 -10.21107 -10.21107 -10.21107 -10.21098
 Alpha  occ. eigenvalues --  -10.21098 -10.21098 -10.21098 -10.21098 -10.21098
 Alpha  occ. eigenvalues --  -10.21098 -10.21098 -10.21097 -10.21097 -10.21094
 Alpha  occ. eigenvalues --  -10.21094 -10.21094 -10.21094 -10.21087 -10.21087
 Alpha  occ. eigenvalues --  -10.21087 -10.21087 -10.21080 -10.21080 -10.21080
 Alpha  occ. eigenvalues --  -10.21080 -10.21074 -10.21074 -10.21074 -10.21074
 Alpha  occ. eigenvalues --  -10.21070 -10.21070 -10.21064 -10.21064 -10.21060
 Alpha  occ. eigenvalues --  -10.21060 -10.21060 -10.21060 -10.21054 -10.21054
 Alpha  occ. eigenvalues --  -10.21054 -10.21054 -10.21049 -10.21049 -10.21049
 Alpha  occ. eigenvalues --  -10.21049 -10.21034 -10.21034 -10.21034 -10.21034
 Alpha  occ. eigenvalues --  -10.21030 -10.21030 -10.21029 -10.21029 -10.21025
 Alpha  occ. eigenvalues --  -10.21025 -10.21025 -10.21025 -10.21023 -10.21023
 Alpha  occ. eigenvalues --  -10.20998 -10.20998 -10.20997 -10.20997 -10.20997
 Alpha  occ. eigenvalues --  -10.20997 -10.20993 -10.20993 -10.20993 -10.20993
 Alpha  occ. eigenvalues --  -10.20990 -10.20990 -10.20990 -10.20990 -10.20968
 Alpha  occ. eigenvalues --  -10.20968 -10.20968 -10.20968 -10.20967 -10.20967
 Alpha  occ. eigenvalues --  -10.20967 -10.20967 -10.20967 -10.20967 -10.20967
 Alpha  occ. eigenvalues --  -10.20967 -10.20967 -10.20967 -10.20961 -10.20961
 Alpha  occ. eigenvalues --  -10.20961 -10.20961 -10.20959 -10.20959 -10.20959
 Alpha  occ. eigenvalues --  -10.20959 -10.20957 -10.20957 -10.20957 -10.20957
 Alpha  occ. eigenvalues --  -10.20956 -10.20956 -10.20933 -10.20933 -10.20933
 Alpha  occ. eigenvalues --  -10.20933 -10.20932 -10.20932 -10.20932 -10.20932
 Alpha  occ. eigenvalues --  -10.20932 -10.20932 -10.20932 -10.20932 -10.20932
 Alpha  occ. eigenvalues --  -10.20932 -10.20901 -10.20901 -10.20900 -10.20900
 Alpha  occ. eigenvalues --  -10.20900 -10.20900 -10.20898 -10.20898 -10.20898
 Alpha  occ. eigenvalues --  -10.20898 -10.20896 -10.20896 -10.20896 -10.20896
 Alpha  occ. eigenvalues --  -10.20869 -10.20869 -10.20869 -10.20869 -10.20866
 Alpha  occ. eigenvalues --  -10.20866 -10.20866 -10.20866 -10.20861 -10.20861
 Alpha  occ. eigenvalues --  -10.20860 -10.20860 -10.20857 -10.20857 -10.20846
 Alpha  occ. eigenvalues --  -10.20846 -10.20842 -10.20842 -10.20842 -10.20842
 Alpha  occ. eigenvalues --  -10.20835 -10.20835 -10.20835 -10.20835 -10.20831
 Alpha  occ. eigenvalues --  -10.20831 -10.20831 -10.20831 -10.20809 -10.20809
 Alpha  occ. eigenvalues --  -10.20809 -10.20809 -10.20807 -10.20807 -10.20807
 Alpha  occ. eigenvalues --  -10.20807 -10.20805 -10.20805 -10.20805 -10.20805
 Alpha  occ. eigenvalues --  -10.20804 -10.20804 -10.19758 -10.19758 -10.19758
 Alpha  occ. eigenvalues --  -10.19758 -10.19758 -10.19758 -10.19758 -10.19758
 Alpha  occ. eigenvalues --  -10.19757 -10.19757 -10.19757 -10.19757 -10.19757
 Alpha  occ. eigenvalues --  -10.19757 -10.19696 -10.19696 -10.19696 -10.19696
 Alpha  occ. eigenvalues --  -10.19696 -10.19696 -10.19696 -10.19696 -10.19696
 Alpha  occ. eigenvalues --  -10.19696 -10.19695 -10.19695 -10.19695 -10.19695
 Alpha  occ. eigenvalues --   -0.95675  -0.95403  -0.95179  -0.95179  -0.95004
 Alpha  occ. eigenvalues --   -0.94907  -0.94907  -0.94509  -0.94508  -0.94463
 Alpha  occ. eigenvalues --   -0.93969  -0.93969  -0.93779  -0.93699  -0.93698
 Alpha  occ. eigenvalues --   -0.93428  -0.93428  -0.93287  -0.93287  -0.93031
 Alpha  occ. eigenvalues --   -0.93031  -0.92959  -0.92496  -0.92496  -0.92469
 Alpha  occ. eigenvalues --   -0.92469  -0.92010  -0.91820  -0.91820  -0.91524
 Alpha  occ. eigenvalues --   -0.91523  -0.91262  -0.91262  -0.91011  -0.91010
 Alpha  occ. eigenvalues --   -0.90993  -0.90993  -0.90935  -0.90601  -0.90601
 Alpha  occ. eigenvalues --   -0.90452  -0.90452  -0.90074  -0.90074  -0.90074
 Alpha  occ. eigenvalues --   -0.90074  -0.89739  -0.89410  -0.89410  -0.89259
 Alpha  occ. eigenvalues --   -0.89259  -0.89013  -0.89012  -0.88618  -0.88618
 Alpha  occ. eigenvalues --   -0.88352  -0.87917  -0.87916  -0.87875  -0.87875
 Alpha  occ. eigenvalues --   -0.87831  -0.87831  -0.87712  -0.87712  -0.87642
 Alpha  occ. eigenvalues --   -0.87642  -0.87268  -0.87268  -0.86872  -0.86757
 Alpha  occ. eigenvalues --   -0.86757  -0.86686  -0.86686  -0.86464  -0.86464
 Alpha  occ. eigenvalues --   -0.86401  -0.86401  -0.86082  -0.86081  -0.85590
 Alpha  occ. eigenvalues --   -0.85590  -0.85266  -0.85220  -0.85220  -0.85016
 Alpha  occ. eigenvalues --   -0.85015  -0.84803  -0.84803  -0.84515  -0.84515
 Alpha  occ. eigenvalues --   -0.84027  -0.84027  -0.83751  -0.83750  -0.83546
 Alpha  occ. eigenvalues --   -0.83474  -0.83474  -0.83469  -0.83468  -0.83440
 Alpha  occ. eigenvalues --   -0.83440  -0.83093  -0.83093  -0.83059  -0.83059
 Alpha  occ. eigenvalues --   -0.82625  -0.82625  -0.82610  -0.82610  -0.82263
 Alpha  occ. eigenvalues --   -0.82263  -0.81951  -0.81951  -0.81788  -0.81788
 Alpha  occ. eigenvalues --   -0.81722  -0.81286  -0.81286  -0.81133  -0.81133
 Alpha  occ. eigenvalues --   -0.81098  -0.81098  -0.80919  -0.80918  -0.80432
 Alpha  occ. eigenvalues --   -0.80432  -0.79847  -0.79847  -0.79806  -0.79511
 Alpha  occ. eigenvalues --   -0.79511  -0.79480  -0.79480  -0.79402  -0.79402
 Alpha  occ. eigenvalues --   -0.79358  -0.79358  -0.78890  -0.78890  -0.78630
 Alpha  occ. eigenvalues --   -0.78630  -0.78265  -0.78265  -0.78222  -0.78222
 Alpha  occ. eigenvalues --   -0.78105  -0.78105  -0.78037  -0.78037  -0.77828
 Alpha  occ. eigenvalues --   -0.77828  -0.77817  -0.77770  -0.77770  -0.77515
 Alpha  occ. eigenvalues --   -0.77515  -0.77099  -0.77099  -0.76942  -0.76942
 Alpha  occ. eigenvalues --   -0.76590  -0.76590  -0.76487  -0.76487  -0.76355
 Alpha  occ. eigenvalues --   -0.76355  -0.76276  -0.76275  -0.75780  -0.75652
 Alpha  occ. eigenvalues --   -0.75652  -0.75630  -0.75630  -0.75465  -0.75465
 Alpha  occ. eigenvalues --   -0.75454  -0.75454  -0.75262  -0.75262  -0.75039
 Alpha  occ. eigenvalues --   -0.74827  -0.74827  -0.74788  -0.74657  -0.74657
 Alpha  occ. eigenvalues --   -0.74503  -0.74503  -0.74432  -0.74049  -0.74048
 Alpha  occ. eigenvalues --   -0.73976  -0.73820  -0.73820  -0.73735  -0.73426
 Alpha  occ. eigenvalues --   -0.73426  -0.73417  -0.72741  -0.72645  -0.72644
 Alpha  occ. eigenvalues --   -0.72091  -0.72091  -0.71939  -0.71858  -0.71858
 Alpha  occ. eigenvalues --   -0.71743  -0.71009  -0.70266  -0.70035  -0.69961
 Alpha  occ. eigenvalues --   -0.69960  -0.69960  -0.69928  -0.69733  -0.69733
 Alpha  occ. eigenvalues --   -0.69696  -0.69288  -0.69014  -0.69013  -0.68811
 Alpha  occ. eigenvalues --   -0.68811  -0.68777  -0.68655  -0.68574  -0.68574
 Alpha  occ. eigenvalues --   -0.68468  -0.68217  -0.68037  -0.68037  -0.67739
 Alpha  occ. eigenvalues --   -0.67642  -0.67642  -0.67576  -0.67576  -0.67530
 Alpha  occ. eigenvalues --   -0.67421  -0.67334  -0.67316  -0.67316  -0.67285
 Alpha  occ. eigenvalues --   -0.67285  -0.66743  -0.66743  -0.66526  -0.66526
 Alpha  occ. eigenvalues --   -0.66004  -0.66004  -0.65940  -0.65940  -0.65891
 Alpha  occ. eigenvalues --   -0.65800  -0.65800  -0.65793  -0.65793  -0.65587
 Alpha  occ. eigenvalues --   -0.65587  -0.65449  -0.65449  -0.65294  -0.65294
 Alpha  occ. eigenvalues --   -0.65112  -0.65111  -0.64871  -0.64871  -0.64676
 Alpha  occ. eigenvalues --   -0.64676  -0.64630  -0.64630  -0.64459  -0.64459
 Alpha  occ. eigenvalues --   -0.64341  -0.64105  -0.64105  -0.63877  -0.63877
 Alpha  occ. eigenvalues --   -0.63821  -0.63821  -0.63814  -0.63814  -0.63767
 Alpha  occ. eigenvalues --   -0.63767  -0.63446  -0.63446  -0.63382  -0.63382
 Alpha  occ. eigenvalues --   -0.62685  -0.62475  -0.62475  -0.61715  -0.61715
 Alpha  occ. eigenvalues --   -0.61552  -0.61552  -0.61547  -0.61547  -0.61351
 Alpha  occ. eigenvalues --   -0.61351  -0.60930  -0.60199  -0.60199  -0.59950
 Alpha  occ. eigenvalues --   -0.59950  -0.59605  -0.59605  -0.59431  -0.59309
 Alpha  occ. eigenvalues --   -0.59303  -0.59303  -0.59212  -0.59212  -0.59139
 Alpha  occ. eigenvalues --   -0.59139  -0.59081  -0.58989  -0.58989  -0.58774
 Alpha  occ. eigenvalues --   -0.58774  -0.58673  -0.58672  -0.58631  -0.58554
 Alpha  occ. eigenvalues --   -0.58553  -0.58402  -0.58401  -0.58339  -0.58339
 Alpha  occ. eigenvalues --   -0.58219  -0.57873  -0.57873  -0.57620  -0.57620
 Alpha  occ. eigenvalues --   -0.57362  -0.57204  -0.57203  -0.57147  -0.57062
 Alpha  occ. eigenvalues --   -0.57062  -0.56952  -0.56951  -0.56851  -0.56808
 Alpha  occ. eigenvalues --   -0.56808  -0.56306  -0.56306  -0.56283  -0.56283
 Alpha  occ. eigenvalues --   -0.55627  -0.55506  -0.55506  -0.55493  -0.55493
 Alpha  occ. eigenvalues --   -0.55333  -0.55178  -0.55178  -0.55137  -0.54881
 Alpha  occ. eigenvalues --   -0.54881  -0.54769  -0.54768  -0.54620  -0.54620
 Alpha  occ. eigenvalues --   -0.53871  -0.53871  -0.53695  -0.53614  -0.53370
 Alpha  occ. eigenvalues --   -0.53370  -0.53283  -0.53283  -0.53254  -0.53254
 Alpha  occ. eigenvalues --   -0.53056  -0.52966  -0.52966  -0.52901  -0.52901
 Alpha  occ. eigenvalues --   -0.52700  -0.52699  -0.52343  -0.52343  -0.52319
 Alpha  occ. eigenvalues --   -0.52319  -0.52290  -0.52290  -0.52191  -0.52190
 Alpha  occ. eigenvalues --   -0.52169  -0.52168  -0.52150  -0.52149  -0.52012
 Alpha  occ. eigenvalues --   -0.52012  -0.51986  -0.51986  -0.51957  -0.51939
 Alpha  occ. eigenvalues --   -0.51939  -0.51533  -0.51334  -0.51334  -0.51324
 Alpha  occ. eigenvalues --   -0.51324  -0.51164  -0.51164  -0.51044  -0.51044
 Alpha  occ. eigenvalues --   -0.50914  -0.50781  -0.50780  -0.50349  -0.50349
 Alpha  occ. eigenvalues --   -0.50339  -0.50339  -0.50137  -0.49949  -0.49948
 Alpha  occ. eigenvalues --   -0.49721  -0.49721  -0.49531  -0.49446  -0.49445
 Alpha  occ. eigenvalues --   -0.49157  -0.49157  -0.48990  -0.48990  -0.48754
 Alpha  occ. eigenvalues --   -0.48754  -0.48730  -0.48363  -0.48362  -0.48276
 Alpha  occ. eigenvalues --   -0.48220  -0.48196  -0.48196  -0.48118  -0.48118
 Alpha  occ. eigenvalues --   -0.47912  -0.47834  -0.47834  -0.47735  -0.47735
 Alpha  occ. eigenvalues --   -0.47702  -0.47698  -0.47697  -0.47639  -0.47639
 Alpha  occ. eigenvalues --   -0.47598  -0.47598  -0.47449  -0.47410  -0.47409
 Alpha  occ. eigenvalues --   -0.47332  -0.47331  -0.47231  -0.47231  -0.47090
 Alpha  occ. eigenvalues --   -0.47090  -0.47068  -0.47068  -0.46891  -0.46890
 Alpha  occ. eigenvalues --   -0.46877  -0.46877  -0.46867  -0.46867  -0.46826
 Alpha  occ. eigenvalues --   -0.46604  -0.46603  -0.46504  -0.46504  -0.46480
 Alpha  occ. eigenvalues --   -0.46480  -0.46448  -0.46393  -0.46270  -0.46269
 Alpha  occ. eigenvalues --   -0.46156  -0.46076  -0.46075  -0.46072  -0.46072
 Alpha  occ. eigenvalues --   -0.46071  -0.46071  -0.46056  -0.46056  -0.46027
 Alpha  occ. eigenvalues --   -0.46027  -0.46024  -0.45988  -0.45988  -0.45935
 Alpha  occ. eigenvalues --   -0.45935  -0.45855  -0.45855  -0.45792  -0.45792
 Alpha  occ. eigenvalues --   -0.45741  -0.45740  -0.45548  -0.45548  -0.45488
 Alpha  occ. eigenvalues --   -0.45487  -0.45472  -0.45472  -0.45334  -0.45333
 Alpha  occ. eigenvalues --   -0.45252  -0.45252  -0.45124  -0.44992  -0.44991
 Alpha  occ. eigenvalues --   -0.44952  -0.44952  -0.44945  -0.44852  -0.44852
 Alpha  occ. eigenvalues --   -0.44802  -0.44801  -0.44724  -0.44724  -0.44720
 Alpha  occ. eigenvalues --   -0.44635  -0.44635  -0.44517  -0.44517  -0.44488
 Alpha  occ. eigenvalues --   -0.44487  -0.44346  -0.44341  -0.44341  -0.44252
 Alpha  occ. eigenvalues --   -0.44252  -0.44224  -0.44224  -0.44160  -0.44099
 Alpha  occ. eigenvalues --   -0.44099  -0.44053  -0.43931  -0.43931  -0.43875
 Alpha  occ. eigenvalues --   -0.43875  -0.43752  -0.43752  -0.43513  -0.43513
 Alpha  occ. eigenvalues --   -0.43477  -0.43477  -0.43384  -0.43384  -0.43287
 Alpha  occ. eigenvalues --   -0.43287  -0.43194  -0.43193  -0.43192  -0.43133
 Alpha  occ. eigenvalues --   -0.43132  -0.43052  -0.43052  -0.43004  -0.43003
 Alpha  occ. eigenvalues --   -0.42981  -0.42980  -0.42949  -0.42949  -0.42935
 Alpha  occ. eigenvalues --   -0.42856  -0.42856  -0.42815  -0.42815  -0.42606
 Alpha  occ. eigenvalues --   -0.42606  -0.42587  -0.42586  -0.42447  -0.42446
 Alpha  occ. eigenvalues --   -0.42344  -0.42344  -0.42288  -0.42245  -0.42245
 Alpha  occ. eigenvalues --   -0.42234  -0.42234  -0.42164  -0.42164  -0.41933
 Alpha  occ. eigenvalues --   -0.41876  -0.41876  -0.41684  -0.41684  -0.41663
 Alpha  occ. eigenvalues --   -0.41663  -0.41548  -0.41548  -0.41526  -0.41525
 Alpha  occ. eigenvalues --   -0.41452  -0.41452  -0.41299  -0.41299  -0.41241
 Alpha  occ. eigenvalues --   -0.41241  -0.41134  -0.41133  -0.41120  -0.41120
 Alpha  occ. eigenvalues --   -0.40942  -0.40941  -0.40922  -0.40922  -0.40696
 Alpha  occ. eigenvalues --   -0.40696  -0.40379  -0.40379  -0.40322  -0.40322
 Alpha  occ. eigenvalues --   -0.39873  -0.39873  -0.39747  -0.39671  -0.39638
 Alpha  occ. eigenvalues --   -0.39638  -0.39376  -0.39376  -0.39317  -0.39317
 Alpha  occ. eigenvalues --   -0.39098  -0.39098  -0.39087  -0.38883  -0.38883
 Alpha  occ. eigenvalues --   -0.38768  -0.38768  -0.38609  -0.38608  -0.38544
 Alpha  occ. eigenvalues --   -0.38466  -0.38466  -0.38345  -0.38345  -0.38197
 Alpha  occ. eigenvalues --   -0.38196  -0.38150  -0.38149  -0.38078  -0.38078
 Alpha  occ. eigenvalues --   -0.38052  -0.38051  -0.37950  -0.37950  -0.37888
 Alpha  occ. eigenvalues --   -0.37888  -0.37745  -0.37745  -0.37708  -0.37708
 Alpha  occ. eigenvalues --   -0.37706  -0.37706  -0.37655  -0.37626  -0.37626
 Alpha  occ. eigenvalues --   -0.37512  -0.37512  -0.37501  -0.37288  -0.37288
 Alpha  occ. eigenvalues --   -0.37240  -0.37240  -0.37233  -0.37233  -0.37111
 Alpha  occ. eigenvalues --   -0.37101  -0.37101  -0.36854  -0.36854  -0.36744
 Alpha  occ. eigenvalues --   -0.36744  -0.36690  -0.36690  -0.36650  -0.36649
 Alpha  occ. eigenvalues --   -0.36599  -0.36599  -0.36335  -0.36335  -0.35935
 Alpha  occ. eigenvalues --   -0.35935  -0.35892  -0.35892  -0.35830  -0.35726
 Alpha  occ. eigenvalues --   -0.35638  -0.35637  -0.35617  -0.35617  -0.35549
 Alpha  occ. eigenvalues --   -0.35443  -0.35443  -0.35131  -0.35131  -0.35044
[...]
   294  C   -0.000416  -0.000416
   295  C   -0.000589  -0.000589
   296  C   -0.000605  -0.000605
   297  C   -0.001060  -0.001072
   298  C   -0.001077  -0.001090
   299  C   -0.000909  -0.004983
   300  C   -0.000924  -0.004997
   301  C   -0.000912  -0.004986
   302  C   -0.000923  -0.004997
   303  C   -0.001066  -0.001078
   304  C   -0.001075  -0.001087
   305  C   -0.000592  -0.000592
   306  C   -0.000601  -0.000601
   307  C   -0.000396  -0.000396
   308  C   -0.000412  -0.000412
   309  C   -0.000547  -0.000547
   310  C   -0.000559  -0.000559
   311  C   -0.000431  -0.000431
   312  C   -0.000442  -0.000442
   313  C   -0.000423  -0.000423
   314  C   -0.000439  -0.000439
   315  C   -0.000435  -0.000435
   316  C   -0.000446  -0.000446
   317  C   -0.000479  -0.000479
   318  C   -0.000491  -0.000491
   319  C   -0.000412  -0.000412
   320  C   -0.000428  -0.000428
   321  C   -0.000488  -0.000488
   322  C   -0.000498  -0.000498
   323  C   -0.000554  -0.000554
   324  C   -0.000566  -0.000566
   325  C   -0.000694  -0.000694
   326  C   -0.000709  -0.000709
   327  C    0.000110  -0.000114
   328  C    0.000109  -0.000114
   329  C    0.007458   0.011768
   330  C    0.007444   0.011754
   331  C    0.007456   0.011766
   332  C    0.007445   0.011755
   333  C    0.000109  -0.000115
   334  C    0.000103  -0.000121
   335  C   -0.000687  -0.000688
   336  C   -0.000710  -0.000710
   337  C   -0.000548  -0.000548
   338  C   -0.000567  -0.000567
   339  C   -0.000481  -0.000481
   340  C   -0.000499  -0.000499
   341  C   -0.000405  -0.000405
   342  C   -0.000429  -0.000429
   343  C   -0.000472  -0.000472
   344  C   -0.000492  -0.000492
   345  C   -0.000428  -0.000428
   346  C   -0.000447  -0.000447
   347  C   -0.000416  -0.000416
   348  C   -0.000440  -0.000440
   349  C   -0.000424  -0.000424
   350  C   -0.000443  -0.000443
   351  C   -0.000540  -0.000540
   352  C   -0.000560  -0.000560
   353  C   -0.000389  -0.000389
   354  C   -0.000413  -0.000413
   355  C   -0.000585  -0.000585
   356  C   -0.000602  -0.000602
   357  C   -0.001061  -0.001074
   358  C   -0.001077  -0.001089
   359  C   -0.000918  -0.004991
   360  C   -0.000926  -0.005000
   361  C   -0.000912  -0.004985
   362  C   -0.000927  -0.005001
   363  C   -0.001058  -0.001071
   364  C   -0.001068  -0.001081
   365  C   -0.000584  -0.000584
   366  C   -0.000595  -0.000595
   367  C   -0.000387  -0.000387
   368  C   -0.000405  -0.000405
   369  C   -0.000538  -0.000538
   370  C   -0.000552  -0.000552
   371  C   -0.000423  -0.000423
   372  C   -0.000436  -0.000436
   373  C   -0.000414  -0.000414
   374  C   -0.000432  -0.000432
   375  C   -0.000426  -0.000426
   376  C   -0.000439  -0.000439
   377  C   -0.000470  -0.000470
   378  C   -0.000484  -0.000484
   379  C   -0.000403  -0.000403
   380  C   -0.000421  -0.000421
   381  C   -0.000479  -0.000479
   382  C   -0.000491  -0.000491
   383  C   -0.000545  -0.000545
   384  C   -0.000559  -0.000559
   385  C   -0.000685  -0.000686
   386  C   -0.000702  -0.000703
   387  C    0.000117  -0.000107
   388  C    0.000111  -0.000112
   389  C    0.007456   0.011766
   390  C    0.007444   0.011754
   391  C    0.007453   0.011763
   392  C    0.007445   0.011755
   393  C    0.000105  -0.000118
   394  C    0.000105  -0.000119
   395  C   -0.000698  -0.000698
   396  C   -0.000709  -0.000709
   397  C   -0.000559  -0.000559
   398  C   -0.000566  -0.000566
   399  C   -0.000492  -0.000492
   400  C   -0.000497  -0.000497
   401  C   -0.000417  -0.000417
   402  C   -0.000428  -0.000428
   403  C   -0.000484  -0.000484
   404  C   -0.000490  -0.000490
   405  C   -0.000439  -0.000439
   406  C   -0.000445  -0.000445
   407  C   -0.000428  -0.000428
   408  C   -0.000439  -0.000439
   409  C   -0.000436  -0.000436
   410  C   -0.000441  -0.000441
   411  C   -0.000552  -0.000552
   412  C   -0.000558  -0.000558
   413  C   -0.000401  -0.000401
   414  C   -0.000412  -0.000412
   415  C   -0.000596  -0.000596
   416  C   -0.000600  -0.000600
   417  C   -0.001071  -0.001083
   418  C   -0.001076  -0.001088
   419  C   -0.000919  -0.004993
   420  C   -0.000927  -0.005000
 
 EQQ=  0.00000000000     EQD=  0.00000000000     EDD= 0.395649706933E-01
 EQQ+QD+DD= 0.395649706933E-01
 
 1\1\GINC-CU23\SP\RB3LYP\6-311G(d)\C420H28\WANG\08-Jul-2025\0\\# B3LYP/
 6-311G* Pop=Hirshfeld NOSYMM\\From ../../cnt_7_7-15_opt.out\\0,1\C,0,4
 .358738,2.100325,1.173786\C,0,4.784362,0.720335,1.173801\C,0,4.294182,
 2.064536,3.641516\C,0,4.710758,0.713554,3.641525\C,0,4.310985,2.077664
 ,6.108836\C,0,4.73203,0.712156,6.108842\C,0,4.311734,2.075077,8.579645
 \C,0,4.731207,0.714691,8.579648\C,0,4.311407,2.075091,11.043709\C,0,4.
 730947,0.714473,11.043709\C,0,4.313016,2.077847,13.513917\C,0,4.733832
 ,0.713083,13.513917\C,0,4.310454,2.07365,15.981105\C,0,4.72936,0.71509
 5,15.981104\C,0,4.312651,2.077113,18.447005\C,0,4.733124,0.713463,18.4
 47004\C,0,4.312031,2.076158,20.917666\C,0,4.732074,0.713904,20.917666\
 C,0,4.310577,2.073969,23.382552\C,0,4.729642,0.7149,23.38255\C,0,4.313
 798,2.078638,25.85132\C,0,4.734924,0.712869,25.851319\C,0,4.310584,2.0
 73527,28.32026\C,0,4.729383,0.715302,28.320258\C,0,4.303658,2.07265,30
 .783936\C,0,4.723154,0.712148,30.783931\C,0,4.305835,2.078734,33.26275
 4\C,0,4.728388,0.70837,33.26275\C,0,4.454211,2.091978,35.685905\C,0,4.
 858487,0.780979,35.685892\C,0,3.105725,3.81779,-0.022984\C,0,4.038682,
 2.811937,-0.022988\C,0,2.977829,3.741464,2.400158\C,0,3.952973,2.69002
 9,2.400151\C,0,2.978539,3.73504,4.878985\C,0,3.946665,2.691179,4.87897
 9\C,0,2.984413,3.738835,7.342661\C,0,3.950923,2.696722,7.342655\C,0,2.
 985094,3.74482,9.811602\C,0,3.956974,2.696923,9.811598\C,0,2.984223,3.
 73921,12.280372\C,0,3.951342,2.696456,12.280367\C,0,2.984585,3.741803,
 14.745255\C,0,3.953969,2.696606,14.745251\C,0,2.984732,3.742927,17.215
 916\C,0,3.95511,2.69666,17.215914\C,0,2.984264,3.738854,19.681813\C,0,
 3.951018,2.696496,19.681813\C,0,2.984756,3.743744,22.148999\C,0,3.9559
 24,2.696621,22.148999\C,0,2.984513,3.740571,24.619205\C,0,3.95273,2.69
 6627,24.619207\C,0,2.984823,3.740711,27.083264\C,0,3.952878,2.696945,2
 7.083266\C,0,2.983037,3.742731,29.554071\C,0,3.954733,2.695034,29.5540
 75\C,0,2.97361,3.72365,32.021387\C,0,3.934977,2.687098,32.021392\C,0,3
 .016227,3.783959,34.489112\C,0,3.998276,2.725141,34.489124\C,0,1.07585
 2,4.717909,1.173845\C,0,2.420178,4.190357,1.173805\C,0,1.063651,4.6449
 76,3.641558\C,0,2.379729,4.128643,3.641533\C,0,1.06387,4.666251,6.1088
 67\C,0,2.39411,4.144382,6.108851\C,0,1.066361,4.66518,8.57967\C,0,2.39
 1614,4.145282,8.579659\C,0,1.066143,4.664903,11.043726\C,0,2.391622,4.
 14492,11.043719\C,0,1.064985,4.667861,13.513929\C,0,2.394505,4.146295,
 13.513925\C,0,1.066669,4.663229,15.981113\C,0,2.39014,4.144039,15.9811
 1\C,0,1.065327,4.667104,18.447008\C,0,2.393762,4.145965,18.447007\C,0,
 1.065689,4.666025,20.917666\C,0,2.392763,4.145419,20.917667\C,0,1.0664
 98,4.663531,23.382546\C,0,2.390469,4.144143,23.382548\C,0,1.064854,4.6
 68978,25.85131\C,0,2.395352,4.147024,25.851314\C,0,1.066854,4.663297,2
 8.320245\C,0,2.389998,4.144223,28.320252\C,0,1.063217,4.657349,30.7839
 12\C,0,2.38858,4.137409,30.783923\C,0,1.059788,4.662878,33.26272\C,0,2
 .394752,4.139137,33.262737\C,0,1.141929,4.787361,35.685835\C,0,2.41904
 9,4.286249,35.685863\C,0,-1.048212,4.808592,-0.022889\C,0,0.319855,4.9
 1129,-0.022895\C,0,-1.068185,4.660671,2.400224\C,0,0.36181,4.768025,2.
 400222\C,0,-1.062679,4.657036,4.879034\C,0,0.35701,4.763708,4.879022\C
 ,0,-1.06198,4.663926,7.342695\C,0,0.355335,4.770435,7.342686\C,0,-1.06
 6241,4.668158,9.811624\C,0,0.358946,4.775256,9.81162\C,0,-1.062401,4.6
 63957,12.280386\C,0,0.355796,4.770532,12.280383\C,0,-1.064207,4.665847
 ,14.745264\C,0,0.357313,4.772668,14.745262\C,0,-1.064996,4.666658,17.2
 15921\C,0,0.35798,4.773588,17.215919\C,0,-1.062103,4.663749,19.681815\
 C,0,0.355558,4.770283,19.681814\C,0,-1.065619,4.667188,22.148997\C,0,0
 .358519,4.774205,22.148997\C,0,-1.063287,4.665028,24.619197\C,0,0.3565
 26,4.771721,24.619198\C,0,-1.0632,4.665376,27.08325\C,0,0.356373,4.772
 055,27.083254\C,0,-1.06589,4.665264,29.554046\C,0,0.359025,4.772338,29
 .554052\C,0,-1.056858,4.64605,32.021354\C,0,0.352903,4.751952,32.02135
 6\C,0,-1.077498,4.717153,34.489077\C,0,0.362577,4.825259,34.489066\C,0
 ,-3.017468,3.782498,1.173869\C,0,-1.766822,4.5046,1.173875\C,0,-2.9680
 58,3.727353,3.641578\C,0,-1.743719,4.434246,3.641585\C,0,-2.984557,3.7
 40728,6.10888\C,0,-1.747042,4.455186,6.108887\C,0,-2.982192,3.741995,8
 .579678\C,0,-1.749307,4.453762,8.579682\C,0,-2.982124,3.741643,11.0437
 31\C,0,-1.749025,4.453521,11.043734\C,0,-2.985163,3.742574,13.513934\C
 ,0,-1.748306,4.456617,13.513935\C,0,-2.980502,3.741003,15.981117\C,0,-
 1.749268,4.451798,15.981117\C,0,-2.984364,3.742364,18.447012\C,0,-1.74
 8515,4.455822,18.447011\C,0,-2.983295,3.741973,20.91767\C,0,-1.748711,
 4.454702,20.917667\C,0,-2.980839,3.741051,23.382548\C,0,-1.749142,4.45
 212,23.382545\C,0,-2.986109,3.743165,25.85131\C,0,-1.748345,4.457739,2
 5.851306\C,0,-2.980419,3.741199,28.32024\C,0,-1.749492,4.451831,28.320
 236\C,0,-2.978021,3.734666,30.783899\C,0,-1.745046,4.446503,30.783896\
 C,0,-2.984498,3.735525,33.262704\C,0,-1.742583,4.452527,33.262703\C,0,
 -3.030674,3.877545,35.685804\C,0,-1.842551,4.563509,35.685812\C,0,-4.4
 12601,2.178354,-0.02291\C,0,-3.639931,3.311989,-0.022903\C,0,-4.309601
 ,2.07054,2.400211\C,0,-3.501931,3.255483,2.400221\C,0,-4.303467,2.0725
 85,4.879011\C,0,-3.501604,3.248993,4.879023\C,0,-4.308484,2.077438,7.3
 42678\C,0,-3.507944,3.251865,7.342688\C,0,-4.314492,2.076751,9.811614\
 C,0,-3.509494,3.257699,9.811621\C,0,-4.308827,2.077135,12.280379\C,0,-
 3.507771,3.252282,12.280384\C,0,-4.311444,2.076902,14.745262\C,0,-3.50
 8507,3.2548,14.745264\C,0,-4.312576,2.076789,17.215922\C,0,-3.508815,3
 .255895,17.215922\C,0,-4.308492,2.077233,19.68182\C,0,-3.507735,3.2519
 32,19.681818\C,0,-4.313372,2.076625,22.149005\C,0,-3.508958,3.256696,2
 2.149001\C,0,-4.310212,2.077096,24.619208\C,0,-3.508246,3.253584,24.61
 9202\C,0,-4.310409,2.077378,27.083265\C,0,-3.50859,3.253675,27.083256\
 C,0,-4.311975,2.075204,29.554064\C,0,-3.507147,3.255937,29.554052\C,0,
 -4.291253,2.070294,32.021366\C,0,-3.49499,3.238457,32.021354\C,0,-4.35
 9633,2.098531,34.489075\C,0,-3.546256,3.29182,34.489061\C,0,-4.838201,
 -0.001016,1.173822\C,0,-4.623053,1.426996,1.173844\C,0,-4.764419,0.003
 216,3.641538\C,0,-4.553784,1.401174,3.641554\C,0,-4.785219,-0.001332,6
 .108851\C,0,-4.572326,1.411649,6.108862\C,0,-4.784772,0.001314,8.57965
 7\C,0,-4.572678,1.408998,8.579665\C,0,-4.784481,0.00115,11.043719\C,0,
 -4.572343,1.409072,11.043723\C,0,-4.78712,-0.000644,13.513926\C,0,-4.5
 74331,1.411566,13.513929\C,0,-4.782991,0.002019,15.981113\C,0,-4.57117
 1,1.407807,15.981115\C,0,-4.786467,-0.000154,18.447013\C,0,-4.573849,1
 .410903,18.447013\C,0,-4.785491,0.000435,20.917675\C,0,-4.573092,1.410
 048,20.917673\C,0,-4.783227,0.001775,23.38256\C,0,-4.571331,1.408095,2
 3.382556\C,0,-4.788146,-0.001033,25.851328\C,0,-4.575207,1.412218,25.8
 51321\C,0,-4.783024,0.002184,28.320266\C,0,-4.571274,1.407632,28.32025
 6\C,0,-4.776379,-0.000018,30.783937\C,0,-4.564289,1.407784,30.783921\C
 ,0,-4.781018,-0.004522,33.262747\C,0,-4.567393,1.413494,33.262729\C,0,
 -4.920788,0.047969,35.685858\C,0,-4.716396,1.404575,35.685836\C,0,-4.4
 5421,-2.091977,-0.022982\C,0,-4.858486,-0.780979,-0.022968\C,0,-4.3058
 34,-2.078734,2.40017\C,0,-4.728387,-0.70837,2.400174\C,0,-4.303657,-2.
 07265,4.878988\C,0,-4.723153,-0.712148,4.878993\C,0,-4.310583,-2.07352
 7,7.342664\C,0,-4.729382,-0.715302,7.342666\C,0,-4.313797,-2.078638,9.
 811604\C,0,-4.734923,-0.712869,9.811606\C,0,-4.310576,-2.073969,12.280
 373\C,0,-4.729641,-0.7149,12.280374\C,0,-4.31203,-2.076158,14.745258\C
 ,0,-4.732073,-0.713904,14.745259\C,0,-4.31265,-2.077113,17.215919\C,0,
 -4.733122,-0.713463,17.215921\C,0,-4.310452,-2.07365,19.68182\C,0,-4.7
 29359,-0.715095,19.68182\C,0,-4.313015,-2.077847,22.149008\C,0,-4.7338
 3,-0.713082,22.149008\C,0,-4.311406,-2.07509,24.619215\C,0,-4.730946,-
 0.714473,24.619215\C,0,-4.311733,-2.075077,27.083279\C,0,-4.731205,-0.
 714691,27.083276\C,0,-4.310983,-2.077664,29.554089\C,0,-4.732029,-0.71
 2156,29.554082\C,0,-4.29418,-2.064535,32.021408\C,0,-4.710756,-0.71355
 3,32.021399\C,0,-4.358737,-2.100325,34.489138\C,0,-4.784361,-0.720335,
 34.489123\C,0,-3.016225,-3.783959,1.173812\C,0,-3.998275,-2.725141,1.1
 738\C,0,-2.973609,-3.72365,3.641537\C,0,-3.934976,-2.687098,3.641532\C
 ,0,-2.983036,-3.742731,6.108853\C,0,-3.954732,-2.695034,6.108849\C,0,-
 2.984822,-3.740711,8.57966\C,0,-3.952877,-2.696945,8.579658\C,0,-2.984
 512,-3.740571,11.043719\C,0,-3.952729,-2.696627,11.043717\C,0,-2.98475
 4,-3.743744,13.513926\C,0,-3.955923,-2.696621,13.513925\C,0,-2.984262,
 -3.738854,15.981111\C,0,-3.951017,-2.696496,15.981112\C,0,-2.984731,-3
 .742927,18.447009\C,0,-3.955108,-2.696659,18.44701\C,0,-2.984584,-3.74
 1803,20.91767\C,0,-3.953967,-2.696606,20.917673\C,0,-2.984222,-3.73921
 ,23.382553\C,0,-3.95134,-2.696455,23.382557\C,0,-2.985092,-3.74482,25.
 851322\C,0,-3.956972,-2.696923,25.851327\C,0,-2.984411,-3.738834,28.32
 0263\C,0,-3.950921,-2.696722,28.320269\C,0,-2.978538,-3.73504,30.78393
 9\C,0,-3.946664,-2.691179,30.783945\C,0,-2.977827,-3.741464,33.262766\
 C,0,-3.952972,-2.690029,33.262773\C,0,-3.105723,-3.817789,35.685908\C,
 0,-4.038681,-2.811937,35.685912\C,0,-1.141928,-4.787361,-0.022911\C,0,
 -2.419048,-4.286249,-0.022939\C,0,-1.059786,-4.662878,2.400204\C,0,-2.
 39475,-4.139137,2.400186\C,0,-1.063216,-4.657349,4.879012\C,0,-2.38857
 9,-4.137409,4.879001\C,0,-1.066853,-4.663297,7.342679\C,0,-2.389997,-4
 .144223,7.342672\C,0,-1.064853,-4.668978,9.811614\C,0,-2.395351,-4.147
 024,9.81161\C,0,-1.066496,-4.663531,12.280378\C,0,-2.390468,-4.144143,
 12.280376\C,0,-1.065688,-4.666025,14.745258\C,0,-2.392762,-4.145419,14
 .745258\C,0,-1.065326,-4.667103,17.215916\C,0,-2.393761,-4.145964,17.2
 15918\C,0,-1.066668,-4.663228,19.681812\C,0,-2.390139,-4.144039,19.681
 814\C,0,-1.064983,-4.667861,22.148995\C,0,-2.394503,-4.146295,22.14899
 9\C,0,-1.066142,-4.664902,24.619198\C,0,-2.39162,-4.144919,24.619205\C
 ,0,-1.06636,-4.66518,27.083255\C,0,-2.391613,-4.145282,27.083265\C,0,-
 1.063869,-4.666251,29.554057\C,0,-2.394108,-4.144381,29.554073\C,0,-1.
 06365,-4.644976,32.021366\C,0,-2.379728,-4.128642,32.021391\C,0,-1.075
 851,-4.717909,34.489078\C,0,-2.420177,-4.190357,34.489118\C,0,1.0775,-
 4.717152,1.173846\C,0,-0.362575,-4.825259,1.173857\C,0,1.056859,-4.646
 05,3.64157\C,0,-0.352902,-4.751952,3.641568\C,0,1.065892,-4.665264,6.1
 08878\C,0,-0.359023,-4.772338,6.108872\C,0,1.063201,-4.665376,8.579674
 \C,0,-0.356371,-4.772055,8.579671\C,0,1.063288,-4.665028,11.043727\C,0
 ,-0.356524,-4.771721,11.043726\C,0,1.065621,-4.667188,13.513927\C,0,-0
 .358518,-4.774205,13.513928\C,0,1.062105,-4.663749,15.981109\C,0,-0.35
 5556,-4.770282,15.98111\C,0,1.064997,-4.666658,18.447004\C,0,-0.357979
 ,-4.773588,18.447005\C,0,1.064208,-4.665847,20.91766\C,0,-0.357312,-4.
 772668,20.917662\C,0,1.062402,-4.663957,23.382539\C,0,-0.355795,-4.770
 532,23.382542\C,0,1.066242,-4.668157,25.8513\C,0,-0.358945,-4.775256,2
 5.851305\C,0,1.061981,-4.663926,28.320229\C,0,-0.355333,-4.770434,28.3
 20238\C,0,1.062681,-4.657036,30.78389\C,0,-0.357008,-4.763708,30.78390
 2\C,0,1.068186,-4.66067,33.2627\C,0,-0.361808,-4.768025,33.262702\C,0,
 1.048213,-4.808592,35.685813\C,0,-0.319854,-4.91129,35.685819\C,0,3.03
 0675,-3.877544,-0.02288\C,0,1.842552,-4.563508,-0.022889\C,0,2.984499,
 -3.735525,2.40022\C,0,1.742584,-4.452527,2.400221\C,0,2.978022,-3.7346
 66,4.879025\C,0,1.745047,-4.446503,4.879028\C,0,2.980421,-3.741199,7.3
 42684\C,0,1.749494,-4.451831,7.342688\C,0,2.98611,-3.743165,9.811614\C
 ,0,1.748347,-4.457739,9.811618\C,0,2.980841,-3.741051,12.280376\C,0,1.
 749144,-4.45212,12.280379\C,0,2.983296,-3.741973,14.745255\C,0,1.74871
 2,-4.454702,14.745257\C,0,2.984366,-3.742364,17.215913\C,0,1.748517,-4
 .455822,17.215914\C,0,2.980503,-3.741002,19.681808\C,0,1.74927,-4.4517
 97,19.681808\C,0,2.985164,-3.742573,22.148991\C,0,1.748307,-4.456617,2
 2.14899\C,0,2.982125,-3.741642,24.619193\C,0,1.749027,-4.453521,24.619
 19\C,0,2.982193,-3.741994,27.083246\C,0,1.749308,-4.453762,27.083242\C
 ,0,2.984558,-3.740728,29.554044\C,0,1.747043,-4.455185,29.554037\C,0,2
 .968059,-3.727353,32.021346\C,0,1.74372,-4.434246,32.021339\C,0,3.0174
 69,-3.782497,34.489055\C,0,1.766823,-4.5046,34.489048\C,0,4.359635,-2.
 09853,1.173849\C,0,3.546257,-3.29182,1.173862\C,0,4.291255,-2.070293,3
 .641558\C,0,3.494991,-3.238457,3.64157\C,0,4.311976,-2.075204,6.10886\
 C,0,3.507149,-3.255937,6.108872\C,0,4.310411,-2.077378,8.579659\C,0,3.
 508592,-3.253675,8.579668\C,0,4.310213,-2.077096,11.043716\C,0,3.50824
 7,-3.253584,11.043722\C,0,4.313374,-2.076625,13.51392\C,0,3.508959,-3.
 256696,13.513924\C,0,4.308493,-2.077232,15.981105\C,0,3.507736,-3.2519
 31,15.981107\C,0,4.312577,-2.076789,18.447003\C,0,3.508816,-3.255894,1
 8.447002\C,0,4.311445,-2.076901,20.917662\C,0,3.508508,-3.2548,20.9176
 6\C,0,4.308828,-2.077134,23.382545\C,0,3.507772,-3.252281,23.382541\C,
 0,4.314493,-2.076751,25.851311\C,0,3.509495,-3.257699,25.851303\C,0,4.
 308485,-2.077437,28.320246\C,0,3.507946,-3.251865,28.320236\C,0,4.3034
 68,-2.072585,30.783913\C,0,3.501605,-3.248993,30.783901\C,0,4.309602,-
 2.070539,33.262713\C,0,3.501932,-3.255483,33.262703\C,0,4.412602,-2.17
 8353,35.685834\C,0,3.639933,-3.311988,35.685827\C,0,4.920789,-0.047968
 ,-0.022935\C,0,4.716397,-1.404575,-0.022912\C,0,4.781019,0.004522,2.40
 0177\C,0,4.567395,-1.413493,2.400194\C,0,4.77638,0.000018,4.878987\C,0
 ,4.564291,-1.407784,4.879003\C,0,4.783026,-0.002184,7.342658\C,0,4.571
 276,-1.407632,7.342668\C,0,4.788147,0.001033,9.811596\C,0,4.575209,-1.
 412218,9.811603\C,0,4.783229,-0.001775,12.280365\C,0,4.571333,-1.40809
 5,12.280369\C,0,4.785492,-0.000434,14.74525\C,0,4.573093,-1.410048,14.
 745251\C,0,4.786469,0.000154,17.215911\C,0,4.573851,-1.410903,17.21591
 2\C,0,4.782992,-0.002019,19.681811\C,0,4.571173,-1.407807,19.68181\C,0
 ,4.787121,0.000644,22.148999\C,0,4.574332,-1.411566,22.148996\C,0,4.78
 4482,-0.00115,24.619205\C,0,4.572344,-1.409071,24.619201\C,0,4.784773,
 -0.001314,27.083267\C,0,4.572679,-1.408998,27.08326\C,0,4.78522,0.0013
 33,29.554073\C,0,4.572327,-1.411649,29.554062\C,0,4.76442,-0.003216,32
 .021386\C,0,4.553785,-1.401174,32.02137\C,0,4.838202,0.001016,34.48910
 2\C,0,4.623054,-1.426996,34.48908\H,0,4.381318,2.615197,36.633702\H,0,
 5.092875,0.307537,36.633681\H,0,2.813125,4.257666,-0.970765\H,0,4.4553
 23,2.487147,-0.970777\H,0,0.687398,5.056686,36.633598\H,0,2.935405,4.1
 74623,36.633653\H,0,-1.574579,4.854056,-0.970653\H,0,0.833497,5.034796
 ,-0.970685\H,0,-3.524681,3.690198,36.633565\H,0,-1.433376,4.897688,36.
 633595\H,0,-4.776233,1.795126,-0.970698\H,0,-3.416146,3.79053,-0.97069
 3\H,0,-5.082336,-0.455015,36.633643\H,0,-4.722486,1.932852,36.63361\H,
 0,-4.381317,-2.615196,-0.970779\H,0,-5.092874,-0.307537,-0.970757\H,0,
 -2.813124,-4.257666,36.633689\H,0,-4.455322,-2.487147,36.633701\H,0,-0
 .687397,-5.056686,-0.970674\H,0,-2.935403,-4.174623,-0.970729\H,0,1.57
 458,-4.854056,36.633577\H,0,-0.833496,-5.034796,36.633609\H,0,3.524683
 ,-3.690198,-0.970641\H,0,1.433377,-4.897688,-0.970671\H,0,4.776234,-1.
 795126,36.633622\H,0,3.416147,-3.79053,36.633617\H,0,5.082337,0.455015
 ,-0.970719\H,0,4.722487,-1.932852,-0.970687\\Version=ES64L-G16RevB.01\
 HF=-16027.3138983\RMSD=6.422e-09\Dipole=0.0000014,-0.0000013,0.0000271
 \Quadrupole=-169.0071689,-168.9998942,338.0070631,-0.0047727,-0.010858
 2,0.0050055\PG=C01 [X(C420H28)]\\@


 ONE THORN OF EXPERIENCE IS WORTH A WHOLE WILDERNESS OF
 WARNING....  LOWELL - AMONG MY BOOKS
 Job cpu time:       2 days 19 hours 24 minutes 50.7 seconds.
 Elapsed time:       0 days  3 hours 45 minutes 44.4 seconds.
 File lengths (MBytes):  RWF=  31244 Int=      0 D2E=      0 Chk=   3347 Scr=      1
 Normal termination of Gaussian 16 at Tue Jul  8 14:20:36 2025.
