 Entering Gaussian System, Link 0=g16
 Initial command:
 /opt/software/g16/l1.exe "/tmp/cnt_7_4-1_sgp-1829.tmp/Gau-131410.inp" -scrdir="/tmp/cnt_7_4-1_sgp-1829.tmp/"
 Entering Link 1 = /opt/software/g16/l1.exe PID=    131411.
  
 Copyright (c) 1988-2017, Gaussian, Inc.  All Rights Reserved.
  
 This is part of the Gaussian(R) 16 program.  It is based on
 the Gaussian(R) 09 system (copyright 2009, Gaussian, Inc.),
 the Gaussian(R) 03 system (copyright 2003, Gaussian, Inc.),
 the Gaussian(R) 98 system (copyright 1998, Gaussian, Inc.),
 the Gaussian(R) 94 system (copyright 1995, Gaussian, Inc.),
 the Gaussian 92(TM) system (copyright 1992, Gaussian, Inc.),
 the Gaussian 90(TM) system (copyright 1990, Gaussian, Inc.),
 the Gaussian 88(TM) system (copyright 1988, Gaussian, Inc.),
 the Gaussian 86(TM) system (copyright 1986, Carnegie Mellon
 University), and the Gaussian 82(TM) system (copyright 1983,
 Carnegie Mellon University). Gaussian is a federally registered
 trademark of Gaussian, Inc.
  
 This software contains proprietary and confidential information,
 including trade secrets, belonging to Gaussian, Inc.
  
 This software is provided under written license and may be
 used, copied, transmitted, or stored only in accord with that
 written license.
  
 The following legend is applicable only to US Government
 contracts under FAR:
  
                    RESTRICTED RIGHTS LEGEND
  
 Use, reproduction and disclosure by the US Government is
 subject to restrictions as set forth in subparagraphs (a)
 and (c) of the Commercial Computer Software - Restricted
 Rights clause in FAR 52.227-19.
  
 Gaussian, Inc.
 340 Quinnipiac St., Bldg. 40, Wallingford CT 06492
  
  
 ---------------------------------------------------------------
 Warning -- This program may not be used in any manner that
 competes with the business of Gaussian, Inc. or will provide
 assistance to any competitor of Gaussian, Inc.  The licensee
 of this program is prohibited from giving any competitor of
 Gaussian, Inc. access to this program.  By using this program,
 the user acknowledges that Gaussian, Inc. is engaged in the
 business of creating and licensing software in the field of
 computational chemistry and represents and warrants to the
 licensee that it is not a competitor of Gaussian, Inc. and that
 it will not use this program in any manner prohibited above.
 ---------------------------------------------------------------
  

 Cite this work as:
 Gaussian 16, Revision B.01,
 M. J. Frisch, G. W. Trucks, H. B. Schlegel, G. E. Scuseria, 
 M. A. Robb, J. R. Cheeseman, G. Scalmani, V. Barone, 
 G. A. Petersson, H. Nakatsuji, X. Li, M. Caricato, A. V. Marenich, 
 J. Bloino, B. G. Janesko, R. Gomperts, B. Mennucci, H. P. Hratchian, 
 J. V. Ortiz, A. F. Izmaylov, J. L. Sonnenberg, D. Williams-Young, 
 F. Ding, F. Lipparini, F. Egidi, J. Goings, B. Peng, A. Petrone, 
 T. Henderson, D. Ranasinghe, V. G. Zakrzewski, J. Gao, N. Rega, 
 G. Zheng, W. Liang, M. Hada, M. Ehara, K. Toyota, R. Fukuda, 
 J. Hasegawa, M. Ishida, T. Nakajima, Y. Honda, O. Kitao, H. Nakai, 
 T. Vreven, K. Throssell, J. A. Montgomery, Jr., J. E. Peralta, 
 F. Ogliaro, M. J. Bearpark, J. J. Heyd, E. N. Brothers, K. N. Kudin, 
 V. N. Staroverov, T. A. Keith, R. Kobayashi, J. Normand, 
 K. Raghavachari, A. P. Rendell, J. C. Burant, S. S. Iyengar, 
 J. Tomasi, M. Cossi, J. M. Millam, M. Klene, C. Adamo, R. Cammi, 
 J. W. Ochterski, R. L. Martin, K. Morokuma, O. Farkas, 
 J. B. Foresman, and D. J. Fox, Gaussian, Inc., Wallingford CT, 2016.
 
 ******************************************
 Gaussian 16:  ES64L-G16RevB.01 20-Dec-2017
                 8-Jul-2025 
 ******************************************
 %nproc=28
 Will use up to   28 processors via shared memory.
 ------------------------------------
 # B3LYP/6-311G* Pop=Hirshfeld NOSYMM
 ------------------------------------
 1/38=1,172=1/1;
 2/12=2,15=1,17=6,18=5,40=1/2;
 3/5=4,6=6,7=1,11=2,25=1,30=1,74=-5/1,2,3;
 4//1;
 5/5=2,38=5/2;
 6/7=2,8=2,9=2,10=2,28=1,79=1/1;
 99/5=1,9=1/99;
 ----------------------------
 From ../../cnt_7_4-1_opt.out
 ----------------------------
 Symbolic Z-matrix:
 Charge =  0 Multiplicity = 1
 6                     3.75925   0.40147   2.41776 
 6                     3.64675  -1.0075    2.63075 
 6                     3.14705   2.20486   0.88865 
 6                     3.678     0.92529   1.0896 
 6                     3.71565   0.77853   4.8536 
 6                     3.7433   -0.6286    5.072 
 6                     2.8788    2.50835   3.29398 
 6                     3.56459   1.27893   3.51869 
 6                     1.31973   3.66249   1.74786 
 6                     2.53902   2.90404   1.9547 
 6                    -0.58458   3.88056   0.23549 
 6                     0.76682   3.90991   0.44555 
 6                     3.63613   1.14218   7.29214 
 6                     3.80661  -0.25995   7.51072 
 6                     2.62397   2.77603   5.74305 
 6                     3.4465    1.63003   5.96152 
 6                     0.94918   3.69975   4.19527 
 6                     2.22327   3.11113   4.4123 
 6                    -0.96564   3.69655   2.64324 
 6                     0.44542   3.8023    2.85639 
 6                    -2.64681   2.8077    1.10917 
 6                    -1.47196   3.54507   1.31555 
 6                     3.48763   1.47931   9.73239 
 6                     3.81425   0.11047   9.95709 
 6                     2.32729   3.00852   8.18252 
 6                     3.25939   1.95081   8.39876 
 6                     0.57272   3.77836   6.63103 
 6                     1.90203   3.3083    6.85053 
 6                    -1.33205   3.57825   5.07735 
 6                     0.05598   3.81951   5.29808 
 6                    -2.90294   2.48211   3.51071 
 6                    -1.80057   3.35547   3.74109 
 6                    -3.78663   0.75822   1.95937 
 6                    -3.23493   2.08644   2.16907 
 6                    -3.70131  -1.16068   0.4516 
 6                    -3.93365   0.17288   0.65811 
 6                     3.34782   1.82161   12.15901 
 6                     3.81934   0.51305   12.35848 
 6                     2.00695   3.22417   10.62529 
 6                     3.04456   2.26022   10.83441 
 6                     0.19394   3.81377   9.06804 
 6                     1.55421   3.46861   9.28652 
 6                    -1.68503   3.43674   7.51364 
 6                    -0.32532   3.81189   7.73662 
 6                    -3.13853   2.18764   5.9573 
 6                    -2.13379   3.17754   6.18026 
 6                    -3.78114   0.38826   4.40751 
 6                    -3.39982   1.73885   4.62591 
 6                    -3.48013  -1.5067    2.85968 
 6                    -3.79605  -0.12608   3.06876 
 6                    -2.35435  -3.0512    1.33558 
 6                    -3.25203  -1.98873   1.53508 
 6                     1.81666   3.49274   13.03596 
 6                     2.85525   2.6246    13.24252 
 6                    -0.18967   3.84488   11.52488 
 6                     1.23642   3.6583    11.73465 
 6                    -2.00577   3.23726   9.95278 
 6                    -0.69825   3.75517   10.18321 
 6                    -3.33589   1.86134   8.39585 
 6                    -2.4329    2.94279   8.61653 
 6                    -3.81627   0.00698   6.84351 
 6                    -3.5587    1.39324   7.06294 
 6                    -3.31923  -1.84731   5.29533 
 6                    -3.76926  -0.51125   5.51155 
 6                    -2.0029   -3.2479    3.73693 
 6                    -3.02506  -2.2807    3.96169 
 6                    -0.17022  -3.89911   2.19217 
 6                    -1.56628  -3.53181   2.39798 
 6                     1.71771  -3.55948   0.68628 
 6                     0.43072  -3.99035   0.90129 
 6                    -2.33451   3.04779   12.37832 
 6                    -1.10845   3.69645   12.58472 
 6                    -3.51578   1.51568   10.83755 
 6                    -2.71878   2.68493   11.05063 
 6                    -3.80585  -0.36976   9.28176 
 6                    -3.67861   1.02795   9.49871 
 6                    -3.13484  -2.16964   7.73254 
 6                    -3.71613  -0.88436   7.95101 
 6                    -1.67821  -3.42659   6.18329 
 6                    -2.80728  -2.57789   6.40192 
 6                     0.19787  -3.80891   4.63569 
 6                    -1.19509  -3.62699   4.85371 
 6                     2.02846  -3.23886   3.07263 
 6                     0.70986  -3.75728   3.29486 
 6                     3.35954  -1.85327   1.52341 
 6                     2.46952  -2.96151   1.7454 
 6                     3.84698  -0.00497   0.00427 
 6                     3.6643   -1.34272   0.21338 
 6                    -3.76972   1.29127   13.24837 
 6                    -3.06879   2.44707   13.45838 
 6                    -3.78404  -0.74657   11.73935 
 6                    -3.83169   0.68859   11.94611 
 6                    -2.88967  -2.44746   10.1754 
 6                    -3.61137  -1.23878   10.4001 
 6                    -1.32721  -3.556     8.622 
 6                    -2.53196  -2.82849   8.84044 
 6                     0.57793  -3.77321   7.07155 
 6                    -0.83228  -3.7186    7.29147 
 6                     2.33807  -3.01842   5.51855 
 6                     1.08316  -3.66329   5.73955 
 6                     3.48249  -1.49232   3.9665 
 6                     2.71555  -2.66594   4.18773 
 6                    -2.63993  -2.72234   12.60448 
 6                    -3.48247  -1.62262   12.80543 
 6                    -0.9507   -3.66209   11.06327 
 6                    -2.22708  -3.05482   11.27631 
 6                     0.95105  -3.68473   9.50616 
 6                    -0.4488   -3.76213   9.72747 
 6                     2.63097  -2.76974   7.95435 
 6                     1.44504  -3.53402   8.17535 
 6                     3.63664  -1.13854   6.40251 
 6                     2.97878  -2.38712   6.62236 
 6                    -0.66893  -3.84452   13.48067 
 6                    -1.91871  -3.33366   13.68982 
 6                     1.33024  -3.61982   11.94847 
 6                    -0.07454  -3.83623   12.17057 
 6                     2.89915  -2.49364   10.39902 
 6                     1.79084  -3.37638   10.62123 
 6                     3.73868  -0.77861   8.84028 
 6                     3.19977  -2.07592   9.05823 
 6                     3.24071  -2.36868   12.79257 
 6                     2.2242   -3.26796   13.00753 
 6                     3.84171  -0.40969   11.29602 
 6                     3.46194  -1.8024    11.50174 
 1                     2.96379   2.51773  -0.13439 
 1                    -0.98292   3.96394  -0.77262 
 1                     1.43253   4.02457  -0.40483 
 1                    -2.9239    2.58281   0.08407 
 1                    -3.71229  -1.56624  -0.55703 
 1                    -4.13401   0.81242  -0.19642 
 1                     3.894     0.15909   13.38199 
 1                    -2.08507  -3.2927    0.31207 
 1                     1.36287   3.98597   13.89047 
 1                     3.21182   2.43118   14.25116 
 1                     2.09739  -3.53332  -0.33009 
 1                    -0.16857  -4.29683   0.04892 
 1                    -0.77515   3.82392   13.60983 
 1                     3.97532   0.3782   -1.00503 
 1                     3.65506  -2.01641  -0.63821 
 1                    -4.20189   0.77214   14.09877 
 1                    -2.94198   2.83384   14.46645 
 1                    -3.66167  -1.30741   13.82847 
 1                    -0.08079  -4.17317   14.33228 
 1                    -2.31453  -3.25293   14.69916 
 1                     3.80593  -2.00312   13.64492 
 1                     2.0119   -3.58399   14.02385 
 
 Symmetry turned off by external request.
 Stoichiometry    C124H22
 Framework group  C1[X(C124H22)]
 Deg. of freedom   432
 Full point group                 C1      NOp   1
                          Input orientation:                          
 ---------------------------------------------------------------------
 Center     Atomic      Atomic             Coordinates (Angstroms)
 Number     Number       Type             X           Y           Z
 ---------------------------------------------------------------------
      1          6           0        3.759249    0.401466    2.417761
      2          6           0        3.646751   -1.007504    2.630750
      3          6           0        3.147055    2.204861    0.888650
      4          6           0        3.677997    0.925287    1.089601
      5          6           0        3.715654    0.778526    4.853605
      6          6           0        3.743303   -0.628599    5.072004
      7          6           0        2.878803    2.508353    3.293980
      8          6           0        3.564589    1.278930    3.518689
      9          6           0        1.319727    3.662490    1.747864
     10          6           0        2.539023    2.904036    1.954698
     11          6           0       -0.584578    3.880555    0.235487
     12          6           0        0.766818    3.909911    0.445550
     13          6           0        3.636126    1.142179    7.292141
     14          6           0        3.806607   -0.259949    7.510721
     15          6           0        2.623974    2.776032    5.743050
     16          6           0        3.446497    1.630034    5.961521
     17          6           0        0.949175    3.699753    4.195271
     18          6           0        2.223274    3.111135    4.412303
     19          6           0       -0.965641    3.696552    2.643244
     20          6           0        0.445422    3.802301    2.856394
     21          6           0       -2.646814    2.807701    1.109171
     22          6           0       -1.471962    3.545073    1.315546
     23          6           0        3.487629    1.479311    9.732393
     24          6           0        3.814245    0.110466    9.957093
     25          6           0        2.327288    3.008523    8.182515
     26          6           0        3.259394    1.950810    8.398759
     27          6           0        0.572721    3.778357    6.631026
     28          6           0        1.902025    3.308300    6.850526
     29          6           0       -1.332049    3.578247    5.077351
     30          6           0        0.055978    3.819510    5.298083
     31          6           0       -2.902943    2.482108    3.510710
     32          6           0       -1.800567    3.355471    3.741092
     33          6           0       -3.786633    0.758221    1.959370
     34          6           0       -3.234931    2.086445    2.169065
     35          6           0       -3.701308   -1.160685    0.451600
     36          6           0       -3.933648    0.172879    0.658106
     37          6           0        3.347824    1.821607   12.159014
     38          6           0        3.819338    0.513046   12.358483
     39          6           0        2.006947    3.224166   10.625293
     40          6           0        3.044557    2.260224   10.834414
     41          6           0        0.193941    3.813769    9.068044
     42          6           0        1.554213    3.468613    9.286519
     43          6           0       -1.685030    3.436736    7.513639
     44          6           0       -0.325324    3.811885    7.736624
     45          6           0       -3.138526    2.187641    5.957304
     46          6           0       -2.133794    3.177539    6.180264
     47          6           0       -3.781141    0.388258    4.407506
     48          6           0       -3.399822    1.738845    4.625905
     49          6           0       -3.480131   -1.506704    2.859677
     50          6           0       -3.796052   -0.126079    3.068758
     51          6           0       -2.354350   -3.051198    1.335575
     52          6           0       -3.252026   -1.988731    1.535080
     53          6           0        1.816660    3.492744   13.035960
     54          6           0        2.855251    2.624596   13.242515
     55          6           0       -0.189669    3.844882   11.524878
     56          6           0        1.236415    3.658304   11.734648
     57          6           0       -2.005772    3.237263    9.952782
     58          6           0       -0.698245    3.755165   10.183209
     59          6           0       -3.335887    1.861341    8.395854
     60          6           0       -2.432899    2.942787    8.616533
     61          6           0       -3.816269    0.006978    6.843509
     62          6           0       -3.558699    1.393242    7.062937
     63          6           0       -3.319229   -1.847306    5.295327
     64          6           0       -3.769256   -0.511247    5.511546
     65          6           0       -2.002901   -3.247903    3.736930
     66          6           0       -3.025058   -2.280698    3.961685
     67          6           0       -0.170223   -3.899110    2.192174
     68          6           0       -1.566276   -3.531806    2.397977
     69          6           0        1.717711   -3.559483    0.686283
     70          6           0        0.430715   -3.990351    0.901292
     71          6           0       -2.334514    3.047787   12.378322
     72          6           0       -1.108447    3.696449   12.584721
     73          6           0       -3.515778    1.515676   10.837545
     74          6           0       -2.718783    2.684926   11.050631
     75          6           0       -3.805849   -0.369763    9.281761
     76          6           0       -3.678614    1.027954    9.498713
     77          6           0       -3.134839   -2.169637    7.732535
     78          6           0       -3.716127   -0.884360    7.951012
     79          6           0       -1.678206   -3.426586    6.183292
     80          6           0       -2.807282   -2.577888    6.401917
     81          6           0        0.197867   -3.808912    4.635693
     82          6           0       -1.195094   -3.626991    4.853707
     83          6           0        2.028464   -3.238861    3.072631
     84          6           0        0.709857   -3.757277    3.294862
     85          6           0        3.359544   -1.853266    1.523405
     86          6           0        2.469522   -2.961513    1.745397
     87          6           0        3.846981   -0.004965    0.004273
     88          6           0        3.664295   -1.342724    0.213377
     89          6           0       -3.769718    1.291267   13.248373
     90          6           0       -3.068790    2.447068   13.458375
     91          6           0       -3.784043   -0.746568   11.739354
     92          6           0       -3.831688    0.688589   11.946108
     93          6           0       -2.889669   -2.447461   10.175396
     94          6           0       -3.611366   -1.238781   10.400105
     95          6           0       -1.327207   -3.555999    8.621996
     96          6           0       -2.531956   -2.828492    8.840444
     97          6           0        0.577932   -3.773207    7.071552
     98          6           0       -0.832280   -3.718599    7.291465
     99          6           0        2.338073   -3.018421    5.518545
    100          6           0        1.083165   -3.663294    5.739546
    101          6           0        3.482492   -1.492318    3.966501
    102          6           0        2.715551   -2.665942    4.187735
    103          6           0       -2.639926   -2.722341   12.604480
    104          6           0       -3.482474   -1.622616   12.805427
    105          6           0       -0.950703   -3.662090   11.063268
    106          6           0       -2.227078   -3.054818   11.276314
    107          6           0        0.951053   -3.684732    9.506159
    108          6           0       -0.448796   -3.762128    9.727471
    109          6           0        2.630968   -2.769735    7.954353
    110          6           0        1.445035   -3.534016    8.175349
    111          6           0        3.636636   -1.138535    6.402513
    112          6           0        2.978776   -2.387118    6.622356
    113          6           0       -0.668925   -3.844521   13.480670
    114          6           0       -1.918705   -3.333665   13.689821
    115          6           0        1.330239   -3.619817   11.948471
    116          6           0       -0.074544   -3.836232   12.170568
    117          6           0        2.899145   -2.493636   10.399025
    118          6           0        1.790836   -3.376384   10.621228
    119          6           0        3.738680   -0.778611    8.840278
    120          6           0        3.199774   -2.075922    9.058232
    121          6           0        3.240707   -2.368683   12.792570
    122          6           0        2.224201   -3.267960   13.007529
    123          6           0        3.841705   -0.409688   11.296024
    124          6           0        3.461938   -1.802401   11.501742
    125          1           0        2.963788    2.517730   -0.134388
    126          1           0       -0.982915    3.963938   -0.772615
    127          1           0        1.432530    4.024567   -0.404831
    128          1           0       -2.923902    2.582811    0.084071
    129          1           0       -3.712286   -1.566238   -0.557025
    130          1           0       -4.134011    0.812424   -0.196419
    131          1           0        3.893998    0.159093   13.381988
    132          1           0       -2.085067   -3.292701    0.312067
    133          1           0        1.362871    3.985969   13.890470
    134          1           0        3.211823    2.431177   14.251158
    135          1           0        2.097394   -3.533319   -0.330087
    136          1           0       -0.168574   -4.296832    0.048921
    137          1           0       -0.775150    3.823917   13.609829
    138          1           0        3.975321    0.378197   -1.005025
    139          1           0        3.655059   -2.016413   -0.638209
    140          1           0       -4.201894    0.772139   14.098773
    141          1           0       -2.941975    2.833841   14.466454
    142          1           0       -3.661665   -1.307408   13.828469
    143          1           0       -0.080791   -4.173165   14.332277
    144          1           0       -2.314530   -3.252934   14.699163
    145          1           0        3.805929   -2.003122   13.644915
    146          1           0        2.011904   -3.583988   14.023850
 ---------------------------------------------------------------------
 Rotational constants (GHZ):           0.0227542           0.0142119           0.0141418
 Standard basis: 6-311G(d) (5D, 7F)
  2298 basis functions,  4078 primitive gaussians,  2422 cartesian basis functions
   383 alpha electrons      383 beta electrons
       nuclear repulsion energy     25962.4960482312 Hartrees.
 NAtoms=  146 NActive=  146 NUniq=  146 SFac= 1.00D+00 NAtFMM=   60 NAOKFM=T Big=T
 Integral buffers will be    131072 words long.
 Raffenetti 2 integral format.
 Two-electron integral symmetry is turned off.
 One-electron integrals computed using PRISM.
 NBasis=  2298 RedAO= T EigKep=  1.20D-05  NBF=  2298
 NBsUse=  2298 1.00D-06 EigRej= -1.00D+00 NBFU=  2298
 ExpMin= 1.03D-01 ExpMax= 4.56D+03 ExpMxC= 6.82D+02 IAcc=3 IRadAn=         5 AccDes= 0.00D+00
 Harris functional with IExCor=  402 and IRadAn=       5 diagonalized for initial guess.
 HarFok:  IExCor=  402 AccDes= 0.00D+00 IRadAn=         5 IDoV= 1 UseB2=F ITyADJ=14
 ICtDFT=  3500011 ScaDFX=  1.000000  1.000000  1.000000  1.000000
 FoFCou: FMM=F IPFlag=           0 FMFlag=      100000 FMFlg1=        2001
         NFxFlg=           0 DoJE=T BraDBF=F KetDBF=T FulRan=T
         wScrn=  0.000000 ICntrl=       500 IOpCl=  0 I1Cent=   200000004 NGrid=           0
         NMat0=    1 NMatS0=      1 NMatT0=    0 NMatD0=    1 NMtDS0=    0 NMtDT0=    0
 Symmetry not used in FoFCou.
 Requested convergence on RMS density matrix=1.00D-08 within 128 cycles.
 Requested convergence on MAX density matrix=1.00D-06.
 Requested convergence on             energy=1.00D-06.
 No special actions if energy rises.
 Integral accuracy reduced to 1.0D-05 until final iterations.
 Problem detected with inexpensive integrals.
 Switching to full accuracy and repeating last cycle.
 SCF Done:  E(RB3LYP) =  -4739.71181392     A.U. after   16 cycles
            NFock= 16  Conv=0.38D-08     -V/T= 2.0043
 Hyperfine terms turned off by default for NAtoms > 100.

 **********************************************************************

            Population analysis using the SCF Density.

 **********************************************************************

 Alpha  occ. eigenvalues --  -10.20765 -10.20765 -10.20751 -10.20751 -10.20742
 Alpha  occ. eigenvalues --  -10.20741 -10.20593 -10.20592 -10.20586 -10.20585
 Alpha  occ. eigenvalues --  -10.20578 -10.20576 -10.20576 -10.20576 -10.20566
 Alpha  occ. eigenvalues --  -10.20564 -10.20562 -10.20562 -10.20561 -10.20560
 Alpha  occ. eigenvalues --  -10.20558 -10.20556 -10.20551 -10.20548 -10.20544
 Alpha  occ. eigenvalues --  -10.20543 -10.20538 -10.20537 -10.20535 -10.20534
 Alpha  occ. eigenvalues --  -10.20533 -10.20523 -10.20521 -10.20517 -10.20517
 Alpha  occ. eigenvalues --  -10.20511 -10.20509 -10.20508 -10.20506 -10.20505
 Alpha  occ. eigenvalues --  -10.20504 -10.20494 -10.20492 -10.20486 -10.20486
 Alpha  occ. eigenvalues --  -10.20485 -10.20484 -10.20483 -10.20476 -10.20475
 Alpha  occ. eigenvalues --  -10.20471 -10.20471 -10.20471 -10.20470 -10.20468
 Alpha  occ. eigenvalues --  -10.20464 -10.20463 -10.20458 -10.20456 -10.20456
 Alpha  occ. eigenvalues --  -10.20450 -10.20447 -10.20444 -10.20443 -10.20435
 Alpha  occ. eigenvalues --  -10.20435 -10.20431 -10.20431 -10.20422 -10.20421
 Alpha  occ. eigenvalues --  -10.20419 -10.20418 -10.20409 -10.20408 -10.20401
 Alpha  occ. eigenvalues --  -10.20401 -10.20398 -10.20397 -10.20396 -10.20396
 Alpha  occ. eigenvalues --  -10.20380 -10.20380 -10.20356 -10.20356 -10.20350
 Alpha  occ. eigenvalues --  -10.20350 -10.20350 -10.20350 -10.20308 -10.20308
 Alpha  occ. eigenvalues --  -10.20207 -10.20207 -10.20196 -10.20196 -10.20188
 Alpha  occ. eigenvalues --  -10.20188 -10.20165 -10.20165 -10.20154 -10.20154
 Alpha  occ. eigenvalues --  -10.20147 -10.20147 -10.19391 -10.19391 -10.19363
 Alpha  occ. eigenvalues --  -10.19363 -10.19359 -10.19358 -10.19348 -10.19348
 Alpha  occ. eigenvalues --  -10.19346 -10.19346 -10.19339 -10.19339 -10.19329
 Alpha  occ. eigenvalues --  -10.19329 -10.19243 -10.19242 -10.19233 -10.19233
 Alpha  occ. eigenvalues --  -10.19230 -10.19230 -10.19230 -10.19230  -0.94659
 Alpha  occ. eigenvalues --   -0.93853  -0.93848  -0.93028  -0.92250  -0.92240
 Alpha  occ. eigenvalues --   -0.91473  -0.91421  -0.90592  -0.90046  -0.89967
 Alpha  occ. eigenvalues --   -0.89837  -0.89516  -0.87650  -0.87621  -0.87599
 Alpha  occ. eigenvalues --   -0.87589  -0.87208  -0.86660  -0.86384  -0.86023
 Alpha  occ. eigenvalues --   -0.85943  -0.84477  -0.84362  -0.83659  -0.83579
 Alpha  occ. eigenvalues --   -0.83364  -0.82876  -0.82391  -0.82346  -0.82141
 Alpha  occ. eigenvalues --   -0.80838  -0.80813  -0.80735  -0.80528  -0.80251
 Alpha  occ. eigenvalues --   -0.79988  -0.79434  -0.79009  -0.78182  -0.78108
 Alpha  occ. eigenvalues --   -0.77620  -0.76698  -0.76585  -0.76325  -0.76164
 Alpha  occ. eigenvalues --   -0.76159  -0.75939  -0.75844  -0.75650  -0.74876
 Alpha  occ. eigenvalues --   -0.74876  -0.74735  -0.74662  -0.73353  -0.72925
 Alpha  occ. eigenvalues --   -0.72909  -0.72787  -0.72610  -0.72254  -0.69807
 Alpha  occ. eigenvalues --   -0.69722  -0.67954  -0.67930  -0.67709  -0.67256
 Alpha  occ. eigenvalues --   -0.67167  -0.67130  -0.66822  -0.66724  -0.66564
 Alpha  occ. eigenvalues --   -0.66008  -0.65788  -0.65565  -0.65559  -0.65285
 Alpha  occ. eigenvalues --   -0.65186  -0.63873  -0.63718  -0.63477  -0.63395
 Alpha  occ. eigenvalues --   -0.62939  -0.61911  -0.61747  -0.61581  -0.61282
 Alpha  occ. eigenvalues --   -0.60900  -0.60807  -0.59913  -0.59772  -0.58998
 Alpha  occ. eigenvalues --   -0.58880  -0.58728  -0.57486  -0.57400  -0.57307
 Alpha  occ. eigenvalues --   -0.57283  -0.56944  -0.56641  -0.56172  -0.56129
 Alpha  occ. eigenvalues --   -0.55428  -0.55050  -0.54801  -0.54702  -0.54349
 Alpha  occ. eigenvalues --   -0.54266  -0.53827  -0.53567  -0.53298  -0.52176
 Alpha  occ. eigenvalues --   -0.52064  -0.51996  -0.51587  -0.51511  -0.51261
 Alpha  occ. eigenvalues --   -0.50850  -0.50804  -0.50419  -0.50206  -0.49792
 Alpha  occ. eigenvalues --   -0.49754  -0.49346  -0.49339  -0.49176  -0.48818
 Alpha  occ. eigenvalues --   -0.48791  -0.48450  -0.48447  -0.48223  -0.48085
 Alpha  occ. eigenvalues --   -0.47473  -0.47331  -0.47241  -0.47183  -0.46736
 Alpha  occ. eigenvalues --   -0.46457  -0.46341  -0.46308  -0.46298  -0.46117
 Alpha  occ. eigenvalues --   -0.45855  -0.45806  -0.45489  -0.45308  -0.45255
 Alpha  occ. eigenvalues --   -0.45207  -0.44925  -0.44710  -0.44564  -0.44512
 Alpha  occ. eigenvalues --   -0.44421  -0.44299  -0.44269  -0.44087  -0.44007
 Alpha  occ. eigenvalues --   -0.43999  -0.43720  -0.43667  -0.43571  -0.43449
 Alpha  occ. eigenvalues --   -0.43430  -0.43329  -0.43100  -0.43093  -0.42978
 Alpha  occ. eigenvalues --   -0.42793  -0.42719  -0.42559  -0.42369  -0.42242
 Alpha  occ. eigenvalues --   -0.42125  -0.42110  -0.41947  -0.41838  -0.41683
 Alpha  occ. eigenvalues --   -0.41309  -0.41281  -0.41141  -0.41082  -0.40912
 Alpha  occ. eigenvalues --   -0.40850  -0.40280  -0.39848  -0.39735  -0.39552
 Alpha  occ. eigenvalues --   -0.39301  -0.39300  -0.38705  -0.38400  -0.38188
 Alpha  occ. eigenvalues --   -0.37734  -0.37367  -0.37362  -0.37254  -0.37243
 Alpha  occ. eigenvalues --   -0.37149  -0.37114  -0.36818  -0.36791  -0.36682
 Alpha  occ. eigenvalues --   -0.36666  -0.36385  -0.35832  -0.35656  -0.35595
 Alpha  occ. eigenvalues --   -0.35558  -0.35340  -0.35241  -0.34883  -0.34834
 Alpha  occ. eigenvalues --   -0.34374  -0.34296  -0.33839  -0.33621  -0.33590
 Alpha  occ. eigenvalues --   -0.33500  -0.33427  -0.33145  -0.33126  -0.32935
 Alpha  occ. eigenvalues --   -0.32404  -0.32400  -0.32264  -0.31457  -0.31362
 Alpha  occ. eigenvalues --   -0.31321  -0.31114  -0.30494  -0.30406  -0.29785
 Alpha  occ. eigenvalues --   -0.29705  -0.29592  -0.29556  -0.29104  -0.28746
 Alpha  occ. eigenvalues --   -0.27600  -0.27193  -0.27102  -0.26769  -0.26295
 Alpha  occ. eigenvalues --   -0.26273  -0.25810  -0.25173  -0.25023  -0.25013
 Alpha  occ. eigenvalues --   -0.25000  -0.24820  -0.24735  -0.23385  -0.23319
 Alpha  occ. eigenvalues --   -0.22573  -0.22058  -0.21915  -0.21775  -0.21004
 Alpha  occ. eigenvalues --   -0.20558  -0.17128  -0.16955
 Alpha virt. eigenvalues --   -0.11515  -0.11307  -0.08143  -0.07645  -0.07473
 Alpha virt. eigenvalues --   -0.07127  -0.06980  -0.06674  -0.06184  -0.06096
 Alpha virt. eigenvalues --   -0.06065  -0.05532  -0.05526  -0.04929  -0.04879
 Alpha virt. eigenvalues --   -0.04620  -0.04375  -0.04343  -0.04109  -0.03473
 Alpha virt. eigenvalues --   -0.02243  -0.02126  -0.01834  -0.01523  -0.01460
 Alpha virt. eigenvalues --   -0.00969  -0.00344  -0.00010   0.00954   0.01273
 Alpha virt. eigenvalues --    0.01279   0.02722   0.02817   0.03046   0.03142
 Alpha virt. eigenvalues --    0.03328   0.03395   0.03563   0.03715   0.03934
 Alpha virt. eigenvalues --    0.04241   0.04273   0.04366   0.04606   0.04712
 Alpha virt. eigenvalues --    0.05246   0.05851   0.06136   0.06670   0.06897
 Alpha virt. eigenvalues --    0.07493   0.07739   0.07838   0.07844   0.08640
 Alpha virt. eigenvalues --    0.09205   0.09214   0.09354   0.09610   0.09653
 Alpha virt. eigenvalues --    0.09943   0.10462   0.10642   0.10958   0.11059
 Alpha virt. eigenvalues --    0.11606   0.12385   0.12547   0.13030   0.13186
 Alpha virt. eigenvalues --    0.13351   0.13462   0.13502   0.13898   0.14169
 Alpha virt. eigenvalues --    0.14340   0.14584   0.14619   0.14854   0.14946
 Alpha virt. eigenvalues --    0.16613   0.16914   0.17249   0.17648   0.17650
 Alpha virt. eigenvalues --    0.17874   0.18030   0.19139   0.19169   0.19284
 Alpha virt. eigenvalues --    0.19422   0.19544   0.19616   0.19783   0.19956
 Alpha virt. eigenvalues --    0.20000   0.20258   0.20529   0.20645   0.20986
 Alpha virt. eigenvalues --    0.21049   0.21315   0.21491   0.21710   0.21735
 Alpha virt. eigenvalues --    0.21950   0.22089   0.22197   0.22281   0.22655
 Alpha virt. eigenvalues --    0.22723   0.22761   0.23164   0.23291   0.23778
 Alpha virt. eigenvalues --    0.24033   0.24282   0.24284   0.24564   0.24582
 Alpha virt. eigenvalues --    0.24639   0.24765   0.24975   0.25309   0.25353
 Alpha virt. eigenvalues --    0.25548   0.25794   0.25850   0.26353   0.26668
 Alpha virt. eigenvalues --    0.26752   0.26838   0.27102   0.27164   0.27759
 Alpha virt. eigenvalues --    0.27863   0.27924   0.27941   0.28144   0.28505
 Alpha virt. eigenvalues --    0.28524   0.28614   0.28862   0.29171   0.29285
 Alpha virt. eigenvalues --    0.29613   0.29717   0.30316   0.30329   0.30659
 Alpha virt. eigenvalues --    0.30755   0.30913   0.30987   0.31312   0.31462
 Alpha virt. eigenvalues --    0.31955   0.32222   0.32755   0.32880   0.32926
 Alpha virt. eigenvalues --    0.33106   0.33204   0.33396   0.33698   0.34202
 Alpha virt. eigenvalues --    0.34232   0.34393   0.34455   0.34544   0.34696
 Alpha virt. eigenvalues --    0.34850   0.34894   0.35058   0.35094   0.35238
 Alpha virt. eigenvalues --    0.35530   0.35594   0.35637   0.36056   0.36145
 Alpha virt. eigenvalues --    0.36251   0.36400   0.36604   0.36691   0.36855
 Alpha virt. eigenvalues --    0.36908   0.36967   0.37086   0.37116   0.37299
 Alpha virt. eigenvalues --    0.37398   0.37601   0.37624   0.37644   0.37652
 Alpha virt. eigenvalues --    0.37829   0.37932   0.37939   0.38170   0.38183
 Alpha virt. eigenvalues --    0.38308   0.38399   0.38442   0.38474   0.38644
 Alpha virt. eigenvalues --    0.38857   0.39079   0.39122   0.39145   0.39329
 Alpha virt. eigenvalues --    0.39330   0.39506   0.39583   0.39667   0.39725
 Alpha virt. eigenvalues --    0.39838   0.39864   0.40113   0.40219   0.40235
 Alpha virt. eigenvalues --    0.40345   0.40387   0.40463   0.40536   0.40614
 Alpha virt. eigenvalues --    0.40618   0.40991   0.41033   0.41101   0.41150
 Alpha virt. eigenvalues --    0.41279   0.41351   0.41401   0.41405   0.41551
 Alpha virt. eigenvalues --    0.41591   0.41719   0.41776   0.41895   0.41911
 Alpha virt. eigenvalues --    0.41953   0.42036   0.42312   0.42355   0.42393
 Alpha virt. eigenvalues --    0.42445   0.42538   0.42569   0.42873   0.42893
 Alpha virt. eigenvalues --    0.42924   0.42986   0.43032   0.43127   0.43136
 Alpha virt. eigenvalues --    0.43360   0.43542   0.43551   0.43745   0.43784
 Alpha virt. eigenvalues --    0.43812   0.43877   0.43894   0.43970   0.44014
 Alpha virt. eigenvalues --    0.44125   0.44208   0.44276   0.44290   0.44383
 Alpha virt. eigenvalues --    0.44427   0.44524   0.44542   0.44583   0.44786
 Alpha virt. eigenvalues --    0.44816   0.44965   0.45004   0.45089   0.45102
 Alpha virt. eigenvalues --    0.45364   0.45453   0.45496   0.45498   0.45574
 Alpha virt. eigenvalues --    0.45615   0.45640   0.45744   0.45814   0.45931
 Alpha virt. eigenvalues --    0.45975   0.46050   0.46070   0.46206   0.46219
 Alpha virt. eigenvalues --    0.46289   0.46504   0.46558   0.46674   0.46821
 Alpha virt. eigenvalues --    0.46837   0.46944   0.46979   0.47128   0.47180
 Alpha virt. eigenvalues --    0.47209   0.47333   0.47480   0.47577   0.47733
 Alpha virt. eigenvalues --    0.47754   0.47875   0.48146   0.48178   0.48366
 Alpha virt. eigenvalues --    0.48414   0.48510   0.48684   0.48740   0.49061
 Alpha virt. eigenvalues --    0.49268   0.49352   0.49445   0.49569   0.49629
 Alpha virt. eigenvalues --    0.49779   0.49939   0.50008   0.50143   0.50225
 Alpha virt. eigenvalues --    0.50277   0.50578   0.50697   0.50729   0.50968
 Alpha virt. eigenvalues --    0.51181   0.51228   0.51433   0.51434   0.51595
 Alpha virt. eigenvalues --    0.51916   0.51918   0.52134   0.52170   0.52286
 Alpha virt. eigenvalues --    0.52444   0.52699   0.52758   0.52864   0.52881
 Alpha virt. eigenvalues --    0.53102   0.53104   0.53276   0.53440   0.53790
 Alpha virt. eigenvalues --    0.53956   0.54015   0.54139   0.54290   0.54485
 Alpha virt. eigenvalues --    0.54580   0.54674   0.54922   0.55104   0.55301
 Alpha virt. eigenvalues --    0.55394   0.55499   0.55671   0.56048   0.56134
 Alpha virt. eigenvalues --    0.56249   0.56306   0.56501   0.56767   0.56821
 Alpha virt. eigenvalues --    0.56883   0.57017   0.57126   0.57349   0.57583
 Alpha virt. eigenvalues --    0.57620   0.57882   0.58007   0.58079   0.58312
 Alpha virt. eigenvalues --    0.58367   0.58474   0.58680   0.58682   0.58884
 Alpha virt. eigenvalues --    0.59088   0.59119   0.59276   0.59632   0.59715
 Alpha virt. eigenvalues --    0.59830   0.60191   0.60418   0.60478   0.60598
 Alpha virt. eigenvalues --    0.60704   0.60791   0.60811   0.60954   0.61046
 Alpha virt. eigenvalues --    0.61149   0.61227   0.61453   0.61566   0.61693
 Alpha virt. eigenvalues --    0.61760   0.61794   0.61862   0.61917   0.61964
 Alpha virt. eigenvalues --    0.62095   0.62197   0.62336   0.62603   0.62638
 Alpha virt. eigenvalues --    0.62676   0.62905   0.63011   0.63012   0.63291
 Alpha virt. eigenvalues --    0.63336   0.63493   0.63569   0.63768   0.64027
 Alpha virt. eigenvalues --    0.64134   0.64227   0.64249   0.64532   0.64767
 Alpha virt. eigenvalues --    0.64956   0.65006   0.65016   0.65311   0.65440
 Alpha virt. eigenvalues --    0.65460   0.65630   0.65676   0.65763   0.65823
 Alpha virt. eigenvalues --    0.65955   0.66086   0.66254   0.66258   0.66388
 Alpha virt. eigenvalues --    0.66546   0.66678   0.66850   0.66857   0.66932
 Alpha virt. eigenvalues --    0.66950   0.67135   0.67141   0.67292   0.67424
 Alpha virt. eigenvalues --    0.67855   0.67941   0.68013   0.68137   0.68145
 Alpha virt. eigenvalues --    0.68383   0.68470   0.68658   0.68976   0.69010
 Alpha virt. eigenvalues --    0.69384   0.69486   0.69605   0.69901   0.69941
 Alpha virt. eigenvalues --    0.70088   0.70318   0.70473   0.70479   0.70537
 Alpha virt. eigenvalues --    0.70647   0.70743   0.71011   0.71061   0.71238
 Alpha virt. eigenvalues --    0.71433   0.71545   0.71567   0.71644   0.71948
 Alpha virt. eigenvalues --    0.72257   0.72292   0.72618   0.72700   0.73008
 Alpha virt. eigenvalues --    0.73025   0.73307   0.73337   0.73609   0.73708
 Alpha virt. eigenvalues --    0.73844   0.74165   0.74217   0.74728   0.74765
 Alpha virt. eigenvalues --    0.74848   0.74853   0.75077   0.75446   0.75701
 Alpha virt. eigenvalues --    0.75759   0.75865   0.76139   0.76733   0.76783
 Alpha virt. eigenvalues --    0.76859   0.77183   0.77518   0.78274   0.78529
 Alpha virt. eigenvalues --    0.78578   0.78597   0.78679   0.78922   0.79133
 Alpha virt. eigenvalues --    0.79206   0.79226   0.79334   0.79578   0.79645
 Alpha virt. eigenvalues --    0.79670   0.80402   0.80468   0.80500   0.80582
 Alpha virt. eigenvalues --    0.80611   0.80966   0.81126   0.81470   0.81528
 Alpha virt. eigenvalues --    0.81613   0.82020   0.82373   0.82540   0.82545
 Alpha virt. eigenvalues --    0.82576   0.82826   0.82838   0.83051   0.83295
 Alpha virt. eigenvalues --    0.83387   0.83473   0.83623   0.83802   0.84064
 Alpha virt. eigenvalues --    0.84309   0.84325   0.84388   0.84792   0.85063
 Alpha virt. eigenvalues --    0.85069   0.85106   0.85389   0.85951   0.86000
 Alpha virt. eigenvalues --    0.86229   0.86313   0.86353   0.86358   0.86644
 Alpha virt. eigenvalues --    0.86704   0.86969   0.87244   0.87374   0.87491
 Alpha virt. eigenvalues --    0.87556   0.87700   0.87727   0.87880   0.88157
 Alpha virt. eigenvalues --    0.88482   0.88891   0.89097   0.89119   0.89199
 Alpha virt. eigenvalues --    0.89211   0.89515   0.89619   0.90091   0.90301
 Alpha virt. eigenvalues --    0.90653   0.91012   0.91283   0.91422   0.91450
 Alpha virt. eigenvalues --    0.91528   0.91679   0.91987   0.91989   0.92134
 Alpha virt. eigenvalues --    0.92357   0.92423   0.92457   0.93036   0.93130
 Alpha virt. eigenvalues --    0.93223   0.93326   0.93620   0.93646   0.94192
 Alpha virt. eigenvalues --    0.94244   0.94297   0.94788   0.94923   0.95030
 Alpha virt. eigenvalues --    0.95120   0.95389   0.95502   0.95509   0.95755
 Alpha virt. eigenvalues --    0.96068   0.96089   0.96297   0.96359   0.96599
 Alpha virt. eigenvalues --    0.96783   0.97106   0.97113   0.97225   0.97611
 Alpha virt. eigenvalues --    0.97679   0.98011   0.98161   0.98575   0.98690
 Alpha virt. eigenvalues --    0.98952   0.99179   0.99294   0.99874   0.99971
 Alpha virt. eigenvalues --    1.00087   1.00094   1.00321   1.00399   1.00478
 Alpha virt. eigenvalues --    1.00628   1.00836   1.00846   1.01039   1.01106
 Alpha virt. eigenvalues --    1.01239   1.01751   1.02312   1.02398   1.02567
 Alpha virt. eigenvalues --    1.02841   1.02975   1.03056   1.03094   1.03490
 Alpha virt. eigenvalues --    1.03550   1.03736   1.03968   1.03992   1.04272
 Alpha virt. eigenvalues --    1.04312   1.04558   1.04589   1.04876   1.05045
 Alpha virt. eigenvalues --    1.05439   1.05638   1.05831   1.05979   1.05988
 Alpha virt. eigenvalues --    1.06341   1.06643   1.06972   1.07018   1.07150
 Alpha virt. eigenvalues --    1.07219   1.07271   1.07603   1.07689   1.07752
 Alpha virt. eigenvalues --    1.07985   1.08141   1.08251   1.08396   1.08720
 Alpha virt. eigenvalues --    1.08952   1.09102   1.09151   1.09244   1.09589
 Alpha virt. eigenvalues --    1.09671   1.09742   1.09837   1.10417   1.10670
 Alpha virt. eigenvalues --    1.10827   1.11171   1.11325   1.11369   1.11741
 Alpha virt. eigenvalues --    1.11748   1.12025   1.12308   1.12513   1.12752
 Alpha virt. eigenvalues --    1.13133   1.13170   1.14274   1.14580   1.14708
 Alpha virt. eigenvalues --    1.14795   1.14946   1.15051   1.15320   1.15409
 Alpha virt. eigenvalues --    1.15760   1.15979   1.16168   1.16519   1.16558
 Alpha virt. eigenvalues --    1.16722   1.17049   1.17141   1.18032   1.18063
 Alpha virt. eigenvalues --    1.18298   1.18666   1.18748   1.19199   1.19270
 Alpha virt. eigenvalues --    1.19459   1.19629   1.19851   1.20013   1.20197
 Alpha virt. eigenvalues --    1.20647   1.21591   1.21633   1.21792   1.22039
 Alpha virt. eigenvalues --    1.22066   1.22547   1.22671   1.23460   1.23543
 Alpha virt. eigenvalues --    1.23707   1.23926   1.24165   1.24194   1.24569
 Alpha virt. eigenvalues --    1.24639   1.24913   1.25082   1.25318   1.25398
 Alpha virt. eigenvalues --    1.25557   1.25569   1.25855   1.26040   1.26265
 Alpha virt. eigenvalues --    1.26348   1.26907   1.26937   1.27109   1.27465
 Alpha virt. eigenvalues --    1.27819   1.28179   1.28227   1.28458   1.28464
 Alpha virt. eigenvalues --    1.28608   1.28987   1.29067   1.29220   1.29429
 Alpha virt. eigenvalues --    1.29505   1.29996   1.30081   1.30245   1.30282
 Alpha virt. eigenvalues --    1.30508   1.30719   1.31372   1.31488   1.31573
 Alpha virt. eigenvalues --    1.31981   1.32025   1.32262   1.32517   1.32559
 Alpha virt. eigenvalues --    1.32856   1.33274   1.33359   1.33539   1.33961
 Alpha virt. eigenvalues --    1.33998   1.34131   1.34148   1.34518   1.34702
 Alpha virt. eigenvalues --    1.34897   1.34908   1.35289   1.35486   1.35847
 Alpha virt. eigenvalues --    1.35915   1.36002   1.36130   1.36267   1.36315
 Alpha virt. eigenvalues --    1.36388   1.36502   1.36694   1.37176   1.37324
 Alpha virt. eigenvalues --    1.37679   1.38013   1.38056   1.38826   1.39050
 Alpha virt. eigenvalues --    1.39576   1.39645   1.39871   1.40127   1.40189
 Alpha virt. eigenvalues --    1.40420   1.40508   1.40604   1.40878   1.41306
 Alpha virt. eigenvalues --    1.41521   1.41706   1.41733   1.42124   1.42199
 Alpha virt. eigenvalues --    1.42213   1.42480   1.42539   1.42567   1.42700
 Alpha virt. eigenvalues --    1.42771   1.42894   1.42985   1.43118   1.43144
 Alpha virt. eigenvalues --    1.43282   1.43418   1.43472   1.43522   1.43628
 Alpha virt. eigenvalues --    1.43840   1.43882   1.43917   1.44095   1.44214
 Alpha virt. eigenvalues --    1.44340   1.44588   1.44614   1.44833   1.44891
 Alpha virt. eigenvalues --    1.44902   1.44974   1.45243   1.45274   1.45393
 Alpha virt. eigenvalues --    1.45476   1.45498   1.45727   1.45743   1.46194
 Alpha virt. eigenvalues --    1.46335   1.46350   1.46661   1.46746   1.47234
 Alpha virt. eigenvalues --    1.47530   1.47577   1.47676   1.47698   1.48030
 Alpha virt. eigenvalues --    1.48170   1.48507   1.48792   1.49185   1.49215
 Alpha virt. eigenvalues --    1.49471   1.49567   1.49654   1.50033   1.50099
 Alpha virt. eigenvalues --    1.50396   1.50412   1.50715   1.50839   1.50969
 Alpha virt. eigenvalues --    1.51174   1.51753   1.51842   1.52009   1.52052
 Alpha virt. eigenvalues --    1.52160   1.52504   1.52816   1.52940   1.53035
 Alpha virt. eigenvalues --    1.53254   1.53450   1.53490   1.53804   1.53876
 Alpha virt. eigenvalues --    1.53887   1.54161   1.54172   1.54184   1.54387
 Alpha virt. eigenvalues --    1.54417   1.54473   1.54526   1.54661   1.54713
 Alpha virt. eigenvalues --    1.54745   1.54936   1.55015   1.55234   1.55380
 Alpha virt. eigenvalues --    1.55597   1.55645   1.56068   1.56125   1.56187
 Alpha virt. eigenvalues --    1.56296   1.56585   1.56588   1.57046   1.57172
 Alpha virt. eigenvalues --    1.57268   1.57315   1.57535   1.57662   1.57681
 Alpha virt. eigenvalues --    1.57789   1.58090   1.58310   1.58820   1.59035
 Alpha virt. eigenvalues --    1.59352   1.59572   1.59674   1.59881   1.60239
 Alpha virt. eigenvalues --    1.60276   1.60406   1.60504   1.60945   1.60963
 Alpha virt. eigenvalues --    1.61520   1.61772   1.61813   1.62387   1.62462
 Alpha virt. eigenvalues --    1.62716   1.62969   1.63428   1.63451   1.63546
 Alpha virt. eigenvalues --    1.63901   1.64018   1.64388   1.64479   1.64646
 Alpha virt. eigenvalues --    1.64738   1.65051   1.65847   1.66164   1.66379
 Alpha virt. eigenvalues --    1.66520   1.66520   1.66980   1.67366   1.67450
 Alpha virt. eigenvalues --    1.68147   1.68467   1.68730   1.69056   1.69919
 Alpha virt. eigenvalues --    1.69979   1.70228   1.70354   1.70473   1.70632
 Alpha virt. eigenvalues --    1.71203   1.71405   1.71807   1.72173   1.72291
 Alpha virt. eigenvalues --    1.72971   1.73091   1.73261   1.73376   1.73835
 Alpha virt. eigenvalues --    1.73864   1.74149   1.74262   1.74418   1.74759
 Alpha virt. eigenvalues --    1.74835   1.75080   1.75243   1.75533   1.75545
 Alpha virt. eigenvalues --    1.75884   1.76126   1.76227   1.76564   1.76638
 Alpha virt. eigenvalues --    1.76935   1.77378   1.77453   1.77556   1.77621
 Alpha virt. eigenvalues --    1.77964   1.78170   1.78261   1.78519   1.78581
 Alpha virt. eigenvalues --    1.78782   1.78974   1.79326   1.79641   1.79929
 Alpha virt. eigenvalues --    1.80201   1.80676   1.80752   1.80996   1.81249
 Alpha virt. eigenvalues --    1.81338   1.81884   1.82565   1.82603   1.83043
 Alpha virt. eigenvalues --    1.83203   1.83418   1.83555   1.83790   1.84001
 Alpha virt. eigenvalues --    1.84282   1.84441   1.84541   1.84696   1.85055
 Alpha virt. eigenvalues --    1.85072   1.85303   1.85643   1.85731   1.85794
 Alpha virt. eigenvalues --    1.86154   1.86170   1.86333   1.86520   1.86682
 Alpha virt. eigenvalues --    1.86696   1.86756   1.87148   1.87189   1.87445
 Alpha virt. eigenvalues --    1.87560   1.87710   1.87751   1.87788   1.87882
 Alpha virt. eigenvalues --    1.87988   1.88078   1.88264   1.88286   1.88463
 Alpha virt. eigenvalues --    1.88537   1.88546   1.88593   1.88814   1.89056
 Alpha virt. eigenvalues --    1.89121   1.89139   1.89363   1.89533   1.89594
 Alpha virt. eigenvalues --    1.89733   1.90097   1.90158   1.90165   1.90207
 Alpha virt. eigenvalues --    1.90504   1.90629   1.90652   1.90871   1.91030
 Alpha virt. eigenvalues --    1.91097   1.91205   1.91370   1.91737   1.91923
 Alpha virt. eigenvalues --    1.92283   1.92450   1.92688   1.92881   1.92992
 Alpha virt. eigenvalues --    1.93173   1.93838   1.94199   1.94201   1.94615
 Alpha virt. eigenvalues --    1.94736   1.95540   1.95952   1.96094   1.96592
 Alpha virt. eigenvalues --    1.96824   1.97215   1.98224   1.98479   1.98552
 Alpha virt. eigenvalues --    1.98867   1.98905   1.99497   1.99973   2.00145
 Alpha virt. eigenvalues --    2.00572   2.01100   2.01128   2.01325   2.01723
 Alpha virt. eigenvalues --    2.01876   2.02094   2.02409   2.02467   2.02904
 Alpha virt. eigenvalues --    2.03033   2.03299   2.03564   2.03853   2.03932
 Alpha virt. eigenvalues --    2.04365   2.04760   2.04982   2.05042   2.05274
 Alpha virt. eigenvalues --    2.05768   2.06335   2.06503   2.06630   2.07272
 Alpha virt. eigenvalues --    2.07546   2.07604   2.07829   2.08249   2.08255
 Alpha virt. eigenvalues --    2.09189   2.09206   2.09500   2.09690   2.09693
 Alpha virt. eigenvalues --    2.09975   2.10029   2.10161   2.10557   2.10594
 Alpha virt. eigenvalues --    2.10726   2.11068   2.11166   2.11496   2.11588
 Alpha virt. eigenvalues --    2.11676   2.11685   2.12200   2.12608   2.12808
 Alpha virt. eigenvalues --    2.13035   2.13209   2.13294   2.13852   2.13913
 Alpha virt. eigenvalues --    2.14094   2.14284   2.14383   2.14490   2.14741
 Alpha virt. eigenvalues --    2.15094   2.15329   2.15388   2.15573   2.15596
 Alpha virt. eigenvalues --    2.15651   2.15663   2.16656   2.16747   2.17063
 Alpha virt. eigenvalues --    2.17138   2.17403   2.17779   2.17943   2.18194
 Alpha virt. eigenvalues --    2.18558   2.18899   2.18929   2.19083   2.19259
 Alpha virt. eigenvalues --    2.19635   2.19989   2.20238   2.20307   2.20599
 Alpha virt. eigenvalues --    2.21005   2.21408   2.21599   2.22131   2.22364
 Alpha virt. eigenvalues --    2.22423   2.22611   2.23351   2.23420   2.23635
 Alpha virt. eigenvalues --    2.23935   2.24278   2.24450   2.24715   2.25190
 Alpha virt. eigenvalues --    2.25446   2.25461   2.25645   2.25971   2.26197
 Alpha virt. eigenvalues --    2.26428   2.26496   2.26879   2.27113   2.27429
 Alpha virt. eigenvalues --    2.27615   2.27863   2.28056   2.28361   2.28603
 Alpha virt. eigenvalues --    2.28651   2.29130   2.29240   2.29569   2.30085
 Alpha virt. eigenvalues --    2.30803   2.31334   2.31479   2.31627   2.31679
 Alpha virt. eigenvalues --    2.31788   2.31958   2.32119   2.32427   2.32675
 Alpha virt. eigenvalues --    2.33029   2.33490   2.33541   2.33628   2.34327
 Alpha virt. eigenvalues --    2.34510   2.34547   2.34832   2.35063   2.35958
 Alpha virt. eigenvalues --    2.36245   2.36292   2.36344   2.37478   2.37848
 Alpha virt. eigenvalues --    2.38008   2.38662   2.38952   2.39065   2.39565
 Alpha virt. eigenvalues --    2.40056   2.40548   2.40770   2.41477   2.41561
 Alpha virt. eigenvalues --    2.41694   2.41928   2.42674   2.42981   2.43412
 Alpha virt. eigenvalues --    2.43735   2.44223   2.44521   2.44616   2.44988
 Alpha virt. eigenvalues --    2.45051   2.45740   2.45750   2.45906   2.46323
 Alpha virt. eigenvalues --    2.46437   2.46868   2.47054   2.47060   2.47534
 Alpha virt. eigenvalues --    2.47828   2.47953   2.48314   2.48379   2.48587
 Alpha virt. eigenvalues --    2.48909   2.49062   2.49105   2.49710   2.49769
 Alpha virt. eigenvalues --    2.50054   2.50251   2.50325   2.50361   2.50521
 Alpha virt. eigenvalues --    2.51033   2.51309   2.51356   2.51843   2.52071
 Alpha virt. eigenvalues --    2.52362   2.52729   2.53473   2.54107   2.54169
 Alpha virt. eigenvalues --    2.54584   2.54730   2.54784   2.55070   2.55093
 Alpha virt. eigenvalues --    2.55223   2.55471   2.56165   2.56651   2.56852
 Alpha virt. eigenvalues --    2.57131   2.57559   2.58035   2.58246   2.58343
 Alpha virt. eigenvalues --    2.58630   2.59435   2.59718   2.60152   2.60308
 Alpha virt. eigenvalues --    2.60364   2.60572   2.60977   2.60990   2.61383
 Alpha virt. eigenvalues --    2.61592   2.61739   2.61746   2.61895   2.62082
 Alpha virt. eigenvalues --    2.62277   2.62300   2.62514   2.62601   2.62862
 Alpha virt. eigenvalues --    2.62974   2.62974   2.63370   2.63622   2.63746
 Alpha virt. eigenvalues --    2.64162   2.64370   2.64847   2.65073   2.65508
 Alpha virt. eigenvalues --    2.65800   2.66164   2.66272   2.66514   2.66659
 Alpha virt. eigenvalues --    2.67270   2.67603   2.67629   2.67788   2.68249
 Alpha virt. eigenvalues --    2.68267   2.68353   2.68402   2.68667   2.69055
 Alpha virt. eigenvalues --    2.69185   2.70167   2.70257   2.70493   2.70574
 Alpha virt. eigenvalues --    2.70885   2.71293   2.71916   2.72186   2.72791
 Alpha virt. eigenvalues --    2.73007   2.73514   2.73739   2.73789   2.74693
 Alpha virt. eigenvalues --    2.74955   2.75562   2.76012   2.76209   2.76325
 Alpha virt. eigenvalues --    2.76604   2.76781   2.78021   2.78259   2.78302
 Alpha virt. eigenvalues --    2.78588   2.79356   2.79419   2.79950   2.80137
 Alpha virt. eigenvalues --    2.81006   2.82042   2.82368   2.82937   2.83117
 Alpha virt. eigenvalues --    2.84362   2.84584   2.85307   2.85650   2.85712
 Alpha virt. eigenvalues --    2.86002   2.86527   2.86621   2.87067   2.87508
 Alpha virt. eigenvalues --    2.87574   2.87609   2.87689   2.91005   2.91646
 Alpha virt. eigenvalues --    2.92310   2.92386   2.92861   2.92878   2.93468
 Alpha virt. eigenvalues --    2.94191   2.94650   2.94772   2.95070   2.95307
 Alpha virt. eigenvalues --    2.95519   2.95529   2.96672   2.96749   2.96906
 Alpha virt. eigenvalues --    2.96960   2.97028   2.97099   2.97245   2.97686
 Alpha virt. eigenvalues --    2.97854   2.98048   2.98146   2.98426   2.98558
 Alpha virt. eigenvalues --    2.98779   2.99422   2.99566   2.99577   2.99736
 Alpha virt. eigenvalues --    2.99857   3.00193   3.00709   3.01078   3.01092
 Alpha virt. eigenvalues --    3.01306   3.01458   3.01694   3.02612   3.02661
 Alpha virt. eigenvalues --    3.02840   3.03395   3.03439   3.04034   3.04151
 Alpha virt. eigenvalues --    3.04417   3.04467   3.06121   3.06265   3.06428
 Alpha virt. eigenvalues --    3.06747   3.06812   3.07743   3.07779   3.07999
 Alpha virt. eigenvalues --    3.08097   3.08578   3.08620   3.08784   3.09091
 Alpha virt. eigenvalues --    3.09228   3.09349   3.09476   3.09634   3.09807
 Alpha virt. eigenvalues --    3.10067   3.10384   3.10498   3.10516   3.10528
 Alpha virt. eigenvalues --    3.10597   3.10712   3.10758   3.10923   3.11086
 Alpha virt. eigenvalues --    3.11265   3.11523   3.11553   3.11784   3.11932
 Alpha virt. eigenvalues --    3.11960   3.12135   3.12138   3.12282   3.12398
 Alpha virt. eigenvalues --    3.12748   3.12875   3.13014   3.13319   3.13692
 Alpha virt. eigenvalues --    3.14002   3.14158   3.14276   3.14450   3.14463
 Alpha virt. eigenvalues --    3.14684   3.14926   3.15389   3.15514   3.15604
 Alpha virt. eigenvalues --    3.15769   3.15995   3.16276   3.16482   3.17151
 Alpha virt. eigenvalues --    3.17236   3.17340   3.17431   3.17540   3.17751
 Alpha virt. eigenvalues --    3.17901   3.18090   3.18177   3.18215   3.18427
 Alpha virt. eigenvalues --    3.18508   3.18671   3.18797   3.18927   3.19593
 Alpha virt. eigenvalues --    3.19803   3.20054   3.20219   3.20269   3.20429
 Alpha virt. eigenvalues --    3.20653   3.20697   3.21024   3.21303   3.21550
 Alpha virt. eigenvalues --    3.21678   3.21969   3.22471   3.22555   3.22671
 Alpha virt. eigenvalues --    3.23109   3.23187   3.23589   3.23612   3.23779
 Alpha virt. eigenvalues --    3.24127   3.24220   3.24707   3.25371   3.25543
 Alpha virt. eigenvalues --    3.26131   3.26670   3.26684   3.26897   3.27733
 Alpha virt. eigenvalues --    3.27771   3.28373   3.28944   3.29073   3.29259
 Alpha virt. eigenvalues --    3.29418   3.29712   3.29804   3.30235   3.30785
 Alpha virt. eigenvalues --    3.31311   3.31419   3.32154   3.32795   3.34053
 Alpha virt. eigenvalues --    3.35093   3.35479   3.35856   3.36027   3.36093
 Alpha virt. eigenvalues --    3.36252   3.36979   3.37182   3.37346   3.37934
 Alpha virt. eigenvalues --    3.38371   3.38409   3.38790   3.39880   3.40064
 Alpha virt. eigenvalues --    3.40131   3.40916   3.41027   3.41042   3.41097
 Alpha virt. eigenvalues --    3.41254   3.41328   3.41826   3.42268   3.42274
 Alpha virt. eigenvalues --    3.42723   3.43023   3.43578   3.43761   3.45077
 Alpha virt. eigenvalues --    3.45138   3.45533   3.46072   3.46530   3.46663
 Alpha virt. eigenvalues --    3.47361   3.47687   3.48106   3.48407   3.48737
 Alpha virt. eigenvalues --    3.48829   3.48922   3.48947   3.50416   3.50668
 Alpha virt. eigenvalues --    3.50891   3.50935   3.51223   3.51396   3.51594
 Alpha virt. eigenvalues --    3.51637   3.52802   3.52976   3.53842   3.54384
 Alpha virt. eigenvalues --    3.54588   3.54610   3.55021   3.55346   3.55916
 Alpha virt. eigenvalues --    3.56251   3.56690   3.56726   3.57554   3.58230
 Alpha virt. eigenvalues --    3.58633   3.58842   3.59698   3.59761   3.59957
 Alpha virt. eigenvalues --    3.60548   3.62457   3.62483   3.68510   3.68857
 Alpha virt. eigenvalues --    3.71479   3.72476   3.72891   3.72892   3.75994
 Alpha virt. eigenvalues --    3.76143   3.77132   3.78540   3.78651   3.78973
 Alpha virt. eigenvalues --    3.81154   3.81359   3.81932   3.82483   3.83089
 Alpha virt. eigenvalues --    3.83167   3.84096   3.84731   3.84934   3.85545
 Alpha virt. eigenvalues --    3.85666   3.86550   3.87201   3.87660   3.87987
 Alpha virt. eigenvalues --    3.88253   3.88913   3.89060   3.89708   3.89717
 Alpha virt. eigenvalues --    3.90609   3.91233   3.92696   3.93127   3.93641
 Alpha virt. eigenvalues --    3.94474   3.95230   3.95939   3.96418   3.97133
 Alpha virt. eigenvalues --    3.97752   4.01629   4.01649   4.03052   4.03361
 Alpha virt. eigenvalues --    4.04986   4.05041   4.08972   4.12051   4.14736
 Alpha virt. eigenvalues --    4.15709   4.20330   4.20429   4.21827   4.30424
 Alpha virt. eigenvalues --    4.31555   4.33524   4.34049   4.40830   4.46083
 Alpha virt. eigenvalues --    4.49651   4.53097   4.54224   4.54616   4.56264
 Alpha virt. eigenvalues --    4.58312   4.58614   4.60737   4.60976   4.62817
 Alpha virt. eigenvalues --    4.63685   4.64579   4.64783   4.64913   4.65160
 Alpha virt. eigenvalues --    4.65812   4.66152   4.67092   4.67848   4.69292
 Alpha virt. eigenvalues --    4.69425   4.70495   4.71465   4.72306   4.72433
 Alpha virt. eigenvalues --    4.73866   4.73894   4.74894   4.75519   4.76357
 Alpha virt. eigenvalues --    4.76381   4.76846   4.77257   4.77981   4.78372
 Alpha virt. eigenvalues --    4.82409   4.82491   4.83174   4.83291   4.84392
 Alpha virt. eigenvalues --    4.85393   4.86560   4.86743   4.89527   4.89564
 Alpha virt. eigenvalues --    4.90570   4.91343   4.95191   4.95613   4.97806
 Alpha virt. eigenvalues --    4.97954  23.03063  23.16528  23.16593  23.20485
 Alpha virt. eigenvalues --   23.28946  23.29061  23.40863  23.41498  23.41971
 Alpha virt. eigenvalues --   23.45517  23.45604  23.48657  23.50835  23.57881
 Alpha virt. eigenvalues --   23.58720  23.59553  23.60171  23.63080  23.66265
 Alpha virt. eigenvalues --   23.66606  23.68749  23.69469  23.69743  23.71935
 Alpha virt. eigenvalues --   23.72196  23.72762  23.76052  23.76652  23.76665
 Alpha virt. eigenvalues --   23.78378  23.79722  23.79825  23.80532  23.82557
 Alpha virt. eigenvalues --   23.82864  23.83862  23.84986  23.85647  23.85874
 Alpha virt. eigenvalues --   23.86459  23.87447  23.87736  23.87915  23.88403
 Alpha virt. eigenvalues --   23.89125  23.89430  23.89456  23.89607  23.90285
 Alpha virt. eigenvalues --   23.90840  23.91427  23.91641  23.93011  23.93216
 Alpha virt. eigenvalues --   23.93677  23.93805  23.95282  23.95605  23.95609
 Alpha virt. eigenvalues --   23.96003  23.96143  23.96342  23.96489  23.96696
 Alpha virt. eigenvalues --   23.96902  23.96975  23.97056  23.97114  23.97214
 Alpha virt. eigenvalues --   23.97245  23.97793  23.97842  23.98257  23.98417
 Alpha virt. eigenvalues --   23.98419  23.98926  23.99014  23.99076  23.99136
 Alpha virt. eigenvalues --   23.99252  23.99917  23.99966  24.00153  24.00625
 Alpha virt. eigenvalues --   24.00694  24.00912  24.01000  24.01174  24.01201
 Alpha virt. eigenvalues --   24.01577  24.01736  24.01906  24.01923  24.02072
 Alpha virt. eigenvalues --   24.03020  24.03035  24.03122  24.03236  24.03348
 Alpha virt. eigenvalues --   24.03386  24.03823  24.03908  24.03930  24.04027
 Alpha virt. eigenvalues --   24.04086  24.04503  24.04528  24.04781  24.04887
 Alpha virt. eigenvalues --   24.04916  24.05132  24.05211  24.05301  24.05792
 Alpha virt. eigenvalues --   24.05982  24.06412  24.09261  24.09306  24.10247
 Alpha virt. eigenvalues --   24.10283  24.10954  24.10963  24.11627  24.11637
          Condensed to atoms (all electrons):
 Mulliken charges:
               1
     1  C    0.016949
     2  C   -0.027712
     3  C   -0.235022
     4  C    0.051865
     5  C    0.027881
     6  C   -0.004253
     7  C    0.033258
     8  C   -0.040359
     9  C    0.049966
    10  C   -0.004247
    11  C   -0.225966
    12  C   -0.239900
    13  C   -0.006173
    14  C    0.014060
    15  C    0.019730
    16  C   -0.010232
    17  C    0.019351
    18  C   -0.020850
    19  C    0.022246
    20  C   -0.035655
    21  C   -0.234150
    22  C    0.047862
    23  C   -0.042549
    24  C    0.027818
    25  C    0.002809
    26  C    0.025986
    27  C   -0.004795
    28  C   -0.004385
    29  C    0.027209
    30  C    0.002272
    31  C    0.031700
    32  C   -0.044444
    33  C    0.049711
    34  C   -0.002780
    35  C   -0.227094
    36  C   -0.238078
    37  C    0.050663
    38  C   -0.233930
    39  C   -0.036493
    40  C    0.021415
    41  C   -0.020681
    42  C    0.020134
    43  C   -0.008955
    44  C    0.020059
    45  C    0.019911
    46  C   -0.009242
    47  C    0.019843
    48  C   -0.020462
    49  C    0.021577
    50  C   -0.036392
    51  C   -0.233877
    52  C    0.050592
    53  C   -0.238075
    54  C   -0.227082
    55  C   -0.002883
    56  C    0.049796
    57  C   -0.044372
    58  C    0.031759
    59  C    0.002605
    60  C    0.026882
    61  C   -0.004642
    62  C   -0.004740
    63  C    0.025886
    64  C    0.003134
    65  C    0.027917
    66  C   -0.042769
    67  C    0.061599
    68  C   -0.002262
    69  C   -0.206304
    70  C   -0.248180
    71  C    0.047821
    72  C   -0.234109
    73  C   -0.035459
    74  C    0.022246
    75  C   -0.020516
    76  C    0.018928
    77  C   -0.010605
    78  C    0.019759
    79  C    0.014204
    80  C   -0.005883
    81  C    0.020872
    82  C   -0.016085
    83  C    0.038261
    84  C   -0.049654
    85  C    0.045388
    86  C   -0.007952
    87  C   -0.230685
    88  C   -0.230543
    89  C   -0.239926
    90  C   -0.225966
    91  C   -0.004186
    92  C    0.049920
    93  C   -0.040186
    94  C    0.033046
    95  C   -0.004424
    96  C    0.028019
    97  C   -0.010786
    98  C    0.006382
    99  C    0.019679
   100  C    0.001307
   101  C    0.026556
   102  C   -0.032378
   103  C    0.051961
   104  C   -0.235008
   105  C   -0.027513
   106  C    0.016745
   107  C   -0.032479
   108  C    0.026546
   109  C    0.001554
   110  C    0.019661
   111  C    0.006358
   112  C   -0.010964
   113  C   -0.230465
   114  C   -0.230734
   115  C   -0.007843
   116  C    0.045260
   117  C   -0.049572
   118  C    0.038218
   119  C   -0.015878
   120  C    0.020690
   121  C   -0.248159
   122  C   -0.206369
   123  C   -0.002197
   124  C    0.061533
   125  H    0.194116
   126  H    0.196577
   127  H    0.204783
   128  H    0.194267
   129  H    0.196229
   130  H    0.204226
   131  H    0.194308
   132  H    0.194313
   133  H    0.204218
   134  H    0.196227
   135  H    0.193886
   136  H    0.203148
   137  H    0.194263
   138  H    0.196167
   139  H    0.202872
   140  H    0.204785
   141  H    0.196580
   142  H    0.194118
   143  H    0.202854
   144  H    0.196163
   145  H    0.203158
   146  H    0.193895
 Sum of Mulliken charges =  -0.00000
 Mulliken charges with hydrogens summed into heavy atoms:
               1
     1  C    0.016949
     2  C   -0.027712
     3  C   -0.040906
     4  C    0.051865
     5  C    0.027881
     6  C   -0.004253
     7  C    0.033258
     8  C   -0.040359
     9  C    0.049966
    10  C   -0.004247
    11  C   -0.029389
    12  C   -0.035117
    13  C   -0.006173
    14  C    0.014060
    15  C    0.019730
    16  C   -0.010232
    17  C    0.019351
    18  C   -0.020850
    19  C    0.022246
    20  C   -0.035655
    21  C   -0.039883
    22  C    0.047862
    23  C   -0.042549
    24  C    0.027818
    25  C    0.002809
    26  C    0.025986
    27  C   -0.004795
    28  C   -0.004385
    29  C    0.027209
    30  C    0.002272
    31  C    0.031700
    32  C   -0.044444
    33  C    0.049711
    34  C   -0.002780
    35  C   -0.030865
    36  C   -0.033852
    37  C    0.050663
    38  C   -0.039622
    39  C   -0.036493
    40  C    0.021415
    41  C   -0.020681
    42  C    0.020134
    43  C   -0.008955
    44  C    0.020059
    45  C    0.019911
    46  C   -0.009242
    47  C    0.019843
    48  C   -0.020462
    49  C    0.021577
    50  C   -0.036392
    51  C   -0.039564
    52  C    0.050592
    53  C   -0.033857
    54  C   -0.030855
    55  C   -0.002883
    56  C    0.049796
    57  C   -0.044372
    58  C    0.031759
    59  C    0.002605
    60  C    0.026882
    61  C   -0.004642
    62  C   -0.004740
    63  C    0.025886
    64  C    0.003134
    65  C    0.027917
    66  C   -0.042769
    67  C    0.061599
    68  C   -0.002262
    69  C   -0.012419
    70  C   -0.045032
    71  C    0.047821
    72  C   -0.039845
    73  C   -0.035459
    74  C    0.022246
    75  C   -0.020516
    76  C    0.018928
    77  C   -0.010605
    78  C    0.019759
    79  C    0.014204
    80  C   -0.005883
    81  C    0.020872
    82  C   -0.016085
    83  C    0.038261
    84  C   -0.049654
    85  C    0.045388
    86  C   -0.007952
    87  C   -0.034519
    88  C   -0.027671
    89  C   -0.035141
    90  C   -0.029386
    91  C   -0.004186
    92  C    0.049920
    93  C   -0.040186
    94  C    0.033046
    95  C   -0.004424
    96  C    0.028019
    97  C   -0.010786
    98  C    0.006382
    99  C    0.019679
   100  C    0.001307
   101  C    0.026556
   102  C   -0.032378
   103  C    0.051961
   104  C   -0.040890
   105  C   -0.027513
   106  C    0.016745
   107  C   -0.032479
   108  C    0.026546
   109  C    0.001554
   110  C    0.019661
   111  C    0.006358
   112  C   -0.010964
   113  C   -0.027611
   114  C   -0.034571
   115  C   -0.007843
   116  C    0.045260
   117  C   -0.049572
   118  C    0.038218
   119  C   -0.015878
   120  C    0.020690
   121  C   -0.045001
   122  C   -0.012474
   123  C   -0.002197
   124  C    0.061533
 Electronic spatial extent (au):  <R**2>=         215845.4643
 Charge=             -0.0000 electrons
 Dipole moment (field-independent basis, Debye):
    X=              0.0849    Y=             -0.1464    Z=             -0.0001  Tot=              0.1692
 Quadrupole moment (field-independent basis, Debye-Ang):
   XX=           -709.7254   YY=           -708.9111   ZZ=           -550.7034
   XY=             -0.7143   XZ=              2.5251   YZ=              0.1175
 Traceless Quadrupole moment (field-independent basis, Debye-Ang):
   XX=            -53.2787   YY=            -52.4645   ZZ=            105.7432
   XY=             -0.7143   XZ=              2.5251   YZ=              0.1175
 Octapole moment (field-independent basis, Debye-Ang**2):
  XXX=              0.1430  YYY=             -7.8858  ZZZ=         -11311.9807  XYY=              5.9558
  XXY=             -2.6327  XXZ=          -4847.0547  XZZ=             36.7713  YZZ=             -2.1788
  YYZ=          -4866.3406  XYZ=            -12.1104
 Hexadecapole moment (field-independent basis, Debye-Ang**3):
 XXXX=         -32132.1816 YYYY=         -32295.9655 ZZZZ=        -211790.2343 XXXY=             51.1377
 XXXZ=           1011.7953 YYYX=             91.9734 YYYZ=            623.2614 ZZZX=           1277.7165
 ZZZY=            382.5849 XXYY=         -10753.7334 XXZZ=         -48948.5628 YYZZ=         -49211.9449
 XXYZ=             82.7376 YYXZ=            377.7440 ZZXY=           -166.3550
 N-N= 2.596249604823D+04 E-N=-6.292173203184D+04  KE= 4.719597084942D+03
 There are a total of     3393260 grid points.
 ElSum from          density=      766.0000376974
 ElSum from atomic densities=      765.9997756955
 Hirshfeld populations at iteration   1 (CA, CB, DipXYZ):
               1          2          3          4          5
     1  C    3.000462   3.000462   0.013793  -0.003161  -0.003422
     2  C    3.000427   3.000427   0.011398   0.001897   0.006679
     3  C    3.019624   3.019624  -0.000590   0.021663  -0.032088
     4  C    3.001711   3.001711   0.017689  -0.017686  -0.002402
     5  C    3.000751   3.000751   0.014287   0.004112  -0.006278
     6  C    3.000570   3.000570   0.014316  -0.003879   0.001140
     7  C    3.000491   3.000491   0.007504   0.009617  -0.002056
     8  C    2.999882   2.999882   0.013127   0.004287   0.006435
     9  C    3.000560   3.000560   0.021863   0.004850  -0.010685
    10  C    3.001196   3.001196  -0.006895   0.021619   0.008532
    11  C    3.018464   3.018464  -0.062085   0.003999  -0.031234
    12  C    3.020186   3.020186   0.066013   0.001533  -0.012457
    13  C    3.000652   3.000652   0.015429   0.001667  -0.004745
    14  C    3.000449   3.000449   0.014877   0.001510   0.002317
    15  C    3.000507   3.000507   0.011164   0.010160  -0.002622
    16  C    3.000711   3.000711   0.013511   0.007790   0.004138
    17  C    3.001049   3.001049  -0.000538   0.015063  -0.005490
    18  C    3.001032   3.001032   0.012954   0.010191   0.002208
    19  C    3.000412   3.000412   0.002014   0.014658  -0.002729
    20  C    3.000458   3.000458  -0.005458   0.010494   0.010692
    21  C    3.019614   3.019614  -0.019336  -0.002754  -0.033111
    22  C    3.001630   3.001630   0.011982   0.019466  -0.002484
    23  C    2.999949   2.999949   0.012283   0.005655  -0.005985
    24  C    3.000597   3.000597   0.011657  -0.001884   0.001756
    25  C    3.000676   3.000676   0.009675   0.011260  -0.003047
    26  C    3.000874   3.000874   0.012172   0.008064   0.006309
    27  C    3.000477   3.000477   0.002898   0.014935  -0.003101
    28  C    3.000463   3.000463   0.007217   0.013434   0.002938
    29  C    3.000871   3.000871  -0.004737   0.014070  -0.006749
    30  C    3.000673   3.000673  -0.000257   0.014990   0.003207
    31  C    3.000465   3.000465  -0.010792   0.005689  -0.002250
    32  C    2.999933   2.999933  -0.006364   0.012185   0.006653
    33  C    3.000539   3.000539  -0.007257   0.022553  -0.009501
    34  C    3.001122   3.001122  -0.020988  -0.012685   0.009159
    35  C    3.018527   3.018527   0.005298  -0.060022  -0.031670
    36  C    3.020173   3.020173  -0.011084   0.063448  -0.013922
    37  C    3.001623   3.001623   0.003592   0.020038   0.002628
    38  C    3.019351   3.019351   0.012934  -0.011197   0.034441
    39  C    3.000430   3.000430   0.010925   0.004235  -0.010501
    40  C    3.000268   3.000268   0.007196   0.012889   0.001878
    41  C    3.001105   3.001105  -0.003423   0.015986  -0.001967
    42  C    3.001090   3.001090   0.009793   0.011313   0.005527
    43  C    3.000746   3.000746  -0.004746   0.014943  -0.005355
    44  C    3.000491   3.000491  -0.002894   0.014941   0.002552
    45  C    3.000485   3.000485  -0.011431   0.009938  -0.002555
    46  C    3.000741   3.000741  -0.010533   0.011529   0.005329
    47  C    3.001089   3.001089  -0.014690  -0.002824  -0.005517
    48  C    3.001101   3.001101  -0.012103   0.010955   0.001979
    49  C    3.000271   3.000271  -0.014802   0.000207  -0.001865
    50  C    3.000433   3.000433  -0.009184  -0.007346   0.010498
    51  C    3.019352   3.019352   0.003234  -0.016788  -0.034453
    52  C    3.001625   3.001625  -0.019166   0.006880  -0.002649
    53  C    3.020173   3.020173  -0.049385   0.041322   0.013929
    54  C    3.018526   3.018526   0.049300  -0.034616   0.031677
    55  C    3.001121   3.001121   0.021469   0.011815  -0.009165
    56  C    3.000544   3.000544  -0.015883   0.017587   0.009486
    57  C    2.999938   2.999938  -0.007377   0.011631  -0.006643
    58  C    3.000463   3.000463   0.000482   0.012170   0.002265
    59  C    3.000671   3.000671  -0.012852   0.007705  -0.003208
    60  C    3.000875   3.000875  -0.009861   0.011154   0.006754
    61  C    3.000463   3.000463  -0.015255   0.000477  -0.002915
    62  C    3.000476   3.000476  -0.014386   0.004961   0.003082
    63  C    3.000877   3.000877  -0.013102  -0.006526  -0.006331
    64  C    3.000677   3.000677  -0.014603  -0.002740   0.003035
    65  C    3.000594   3.000594  -0.004160  -0.011008  -0.001740
    66  C    2.999950   2.999950  -0.011016  -0.007797   0.005999
    67  C    3.000422   3.000422  -0.026818  -0.010003  -0.005773
    68  C    3.001062   3.001062   0.019341  -0.020640   0.009807
    69  C    3.019015   3.019015   0.051420   0.009980  -0.033154
    70  C    3.019820   3.019820  -0.056533  -0.019696  -0.018197
    71  C    3.001632   3.001632  -0.022853  -0.000614   0.002488
    72  C    3.019617   3.019617   0.012049   0.015372   0.033103
    73  C    3.000467   3.000467  -0.006446   0.010029  -0.010704
    74  C    3.000415   3.000415  -0.013729   0.005620   0.002722
    75  C    3.001029   3.001029  -0.015263  -0.006144  -0.002225
    76  C    3.001047   3.001047  -0.012762   0.007989   0.005466
    77  C    3.000708   3.000708  -0.013468  -0.007773  -0.004085
    78  C    3.000502   3.000502  -0.014330  -0.004573   0.002645
    79  C    3.000456   3.000456  -0.008786  -0.012194  -0.002343
    80  C    3.000662   3.000662  -0.009213  -0.012601   0.004742
    81  C    3.001056   3.001056   0.004174  -0.013785  -0.006983
    82  C    3.001224   3.001224  -0.008348  -0.013579   0.001739
    83  C    3.000229   3.000229   0.002585  -0.012273   0.005008
    84  C    3.000199   3.000199   0.009255  -0.007340   0.011686
    85  C    3.000569   3.000569   0.005881  -0.015311  -0.010653
    86  C    3.001517   3.001517   0.014888  -0.001757  -0.007227
    87  C    3.018589   3.018589   0.013154   0.062605  -0.030629
    88  C    3.020473   3.020473  -0.009092  -0.067152  -0.010609
    89  C    3.020190   3.020190  -0.034359  -0.056407   0.012465
    90  C    3.018468   3.018468   0.027550   0.055800   0.031233
    91  C    3.001198   3.001198  -0.015294   0.016786  -0.008546
    92  C    3.000569   3.000569  -0.015194  -0.016523   0.010696
    93  C    2.999877   2.999877  -0.010227  -0.009198  -0.006478
    94  C    3.000489   3.000489  -0.012066  -0.001697   0.002029
    95  C    3.000567   3.000567  -0.003786  -0.014309  -0.001119
    96  C    3.000741   3.000741  -0.010673  -0.010224   0.006298
    97  C    3.000586   3.000586   0.000219  -0.015022  -0.002628
    98  C    3.000494   3.000494  -0.001572  -0.015133   0.002725
    99  C    3.000919   3.000919   0.007616  -0.013286  -0.002002
   100  C    3.000945   3.000945   0.006617  -0.013801   0.003553
   101  C    3.000677   3.000677   0.015383  -0.001315  -0.002610
   102  C    3.000981   3.000981   0.007145  -0.013424   0.000952
   103  C    3.001714   3.001714   0.006447  -0.024184   0.002425
   104  C    3.019628   3.019628  -0.018474   0.011330   0.032114
   105  C    3.000425   3.000425  -0.007333  -0.008918  -0.006678
   106  C    3.000464   3.000464  -0.004161  -0.013559   0.003398
   107  C    3.000983   3.000983   0.008036  -0.012912  -0.000950
   108  C    3.000672   3.000672  -0.006563  -0.013934   0.002613
   109  C    3.000945   3.000945   0.008652  -0.012625  -0.003576
   110  C    3.000924   3.000924   0.007716  -0.013277   0.002002
   111  C    3.000489   3.000489   0.013856  -0.006176  -0.002698
   112  C    3.000581   3.000581   0.012863  -0.007678   0.002624
   113  C    3.020473   3.020473   0.062695  -0.025698   0.010603
   114  C    3.018587   3.018587  -0.060775   0.019946   0.030637
   115  C    3.001513   3.001513  -0.005919  -0.013747   0.007224
   116  C    3.000567   3.000567   0.010317  -0.012739   0.010633
   117  C    3.000203   3.000203   0.001758  -0.011721  -0.011646
   118  C    3.000226   3.000226   0.009322  -0.008356  -0.004976
   119  C    3.001227   3.001227   0.015945   0.000429  -0.001764
   120  C    3.001061   3.001061   0.009896  -0.010517   0.006964
   121  C    3.019819   3.019819   0.045324   0.039127   0.018186
   122  C    3.019014   3.019014  -0.034337  -0.039578   0.033126
   123  C    3.001060   3.001060   0.008212  -0.027064  -0.009802
   124  C    3.000415   3.000415   0.022035   0.018235   0.005791
   125  H    0.479030   0.479030  -0.018087   0.036668  -0.136496
   126  H    0.476118   0.476118  -0.052021   0.010655  -0.140944
   127  H    0.476756   0.476756   0.085240   0.017883  -0.121403
   128  H    0.478970   0.478970  -0.032995  -0.023228  -0.136892
   129  H    0.476207   0.476207  -0.001091  -0.052762  -0.140951
   130  H    0.476832   0.476832  -0.028613   0.081058  -0.121925
   131  H    0.478952   0.478952   0.010788  -0.039319   0.136539
   132  H    0.478953   0.478953   0.028675  -0.028976  -0.136537
   133  H    0.476833   0.476833  -0.055906   0.065295   0.121921
   134  H    0.476207   0.476207   0.046219  -0.025456   0.140953
   135  H    0.477220   0.477220   0.043676  -0.002803  -0.141049
   136  H    0.476721   0.476721  -0.075596  -0.041856  -0.121702
   137  H    0.478970   0.478970   0.036616   0.016953   0.136894
   138  H    0.476177   0.476177   0.016386   0.050055  -0.140979
   139  H    0.476962   0.476962   0.001920  -0.086356  -0.121443
   140  H    0.476756   0.476756  -0.058114  -0.064871   0.121410
   141  H    0.476118   0.476118   0.016763   0.050397   0.140943
   142  H    0.479030   0.479030  -0.022693   0.034000   0.136496
   143  H    0.476964   0.476964   0.073832  -0.044807   0.121447
   144  H    0.476177   0.476177  -0.051512   0.010880   0.140983
   145  H    0.476719   0.476719   0.074075   0.044514   0.121701
   146  H    0.477220   0.477220  -0.019386  -0.039275   0.141044
       Tot 383.000019 383.000019   0.014968  -0.025935  -0.000023

 Dip from Atomic Chgs              0.018446  -0.031521  -0.000722
         Total Dipole              0.033415  -0.057456  -0.000745

 Hirshfeld charges, spin densities, dipoles, and CM5 charges using IRadAn=      5:
              Q-H        S-H        Dx         Dy         Dz        Q-CM5   
     1  C   -0.000924   0.000000   0.013793  -0.003161  -0.003422  -0.001275
     2  C   -0.000853   0.000000   0.011398   0.001897   0.006679  -0.001081
     3  C   -0.039249   0.000000  -0.000590   0.021663  -0.032088  -0.089028
     4  C   -0.003422   0.000000   0.017689  -0.017686  -0.002402  -0.010417
     5  C   -0.001502   0.000000   0.014287   0.004112  -0.006278  -0.001504
     6  C   -0.001140   0.000000   0.014316  -0.003879   0.001140  -0.001140
     7  C   -0.000982   0.000000   0.007504   0.009617  -0.002056  -0.001152
     8  C    0.000236   0.000000   0.013127   0.004287   0.006435   0.000180
     9  C   -0.001121   0.000000   0.021863   0.004850  -0.010685  -0.005241
    10  C   -0.002391   0.000000  -0.006895   0.021619   0.008532  -0.006391
    11  C   -0.036929   0.000000  -0.062085   0.003999  -0.031234  -0.089768
[...]
    17  C   -0.002097   0.000000  -0.000538   0.015063  -0.005490  -0.002110
    18  C   -0.002064   0.000000   0.012954   0.010191   0.002208  -0.002075
    19  C   -0.000824   0.000000   0.002014   0.014658  -0.002729  -0.001177
    20  C   -0.000916   0.000000  -0.005458   0.010494   0.010692  -0.001150
    21  C   -0.039229   0.000000  -0.019336  -0.002754  -0.033111  -0.088997
    22  C   -0.003260   0.000000   0.011982   0.019466  -0.002484  -0.010244
    23  C    0.000101   0.000000   0.012283   0.005655  -0.005985   0.000045
    24  C   -0.001194   0.000000   0.011657  -0.001884   0.001756  -0.001365
    25  C   -0.001352   0.000000   0.009675   0.011260  -0.003047  -0.001353
    26  C   -0.001748   0.000000   0.012172   0.008064   0.006309  -0.001750
    27  C   -0.000953   0.000000   0.002898   0.014935  -0.003101  -0.000953
    28  C   -0.000926   0.000000   0.007217   0.013434   0.002938  -0.000926
    29  C   -0.001742   0.000000  -0.004737   0.014070  -0.006749  -0.001744
    30  C   -0.001345   0.000000  -0.000257   0.014990   0.003207  -0.001346
    31  C   -0.000930   0.000000  -0.010792   0.005689  -0.002250  -0.001101
    32  C    0.000134   0.000000  -0.006364   0.012185   0.006653   0.000078
    33  C   -0.001078   0.000000  -0.007257   0.022553  -0.009501  -0.005199
    34  C   -0.002244   0.000000  -0.020988  -0.012685   0.009159  -0.006255
    35  C   -0.037053   0.000000   0.005298  -0.060022  -0.031670  -0.089887
    36  C   -0.040345   0.000000  -0.011084   0.063448  -0.013922  -0.093207
    37  C   -0.003247   0.000000   0.003592   0.020038   0.002628  -0.010228
    38  C   -0.038703   0.000000   0.012934  -0.011197   0.034441  -0.088438
    39  C   -0.000860   0.000000   0.010925   0.004235  -0.010501  -0.001094
    40  C   -0.000537   0.000000   0.007196   0.012889   0.001878  -0.000890
    41  C   -0.002209   0.000000  -0.003423   0.015986  -0.001967  -0.002220
    42  C   -0.002181   0.000000   0.009793   0.011313   0.005527  -0.002193
    43  C   -0.001491   0.000000  -0.004746   0.014943  -0.005355  -0.001492
    44  C   -0.000982   0.000000  -0.002894   0.014941   0.002552  -0.000983
    45  C   -0.000971   0.000000  -0.011431   0.009938  -0.002555  -0.000971
    46  C   -0.001481   0.000000  -0.010533   0.011529   0.005329  -0.001481
    47  C   -0.002178   0.000000  -0.014690  -0.002824  -0.005517  -0.002191
    48  C   -0.002203   0.000000  -0.012103   0.010955   0.001979  -0.002214
    49  C   -0.000542   0.000000  -0.014802   0.000207  -0.001865  -0.000896
    50  C   -0.000866   0.000000  -0.009184  -0.007346   0.010498  -0.001099
    51  C   -0.038704   0.000000   0.003234  -0.016788  -0.034453  -0.088441
    52  C   -0.003250   0.000000  -0.019166   0.006880  -0.002649  -0.010232
    53  C   -0.040346   0.000000  -0.049385   0.041322   0.013929  -0.093207
    54  C   -0.037051   0.000000   0.049300  -0.034616   0.031677  -0.089885
    55  C   -0.002242   0.000000   0.021469   0.011815  -0.009165  -0.006254
    56  C   -0.001088   0.000000  -0.015883   0.017587   0.009486  -0.005210
    57  C    0.000125   0.000000  -0.007377   0.011631  -0.006643   0.000069
    58  C   -0.000926   0.000000   0.000482   0.012170   0.002265  -0.001096
    59  C   -0.001342   0.000000  -0.012852   0.007705  -0.003208  -0.001342
    60  C   -0.001751   0.000000  -0.009861   0.011154   0.006754  -0.001753
    61  C   -0.000926   0.000000  -0.015255   0.000477  -0.002915  -0.000926
    62  C   -0.000952   0.000000  -0.014386   0.004961   0.003082  -0.000952
    63  C   -0.001755   0.000000  -0.013102  -0.006526  -0.006331  -0.001757
    64  C   -0.001354   0.000000  -0.014603  -0.002740   0.003035  -0.001355
    65  C   -0.001188   0.000000  -0.004160  -0.011008  -0.001740  -0.001359
    66  C    0.000101   0.000000  -0.011016  -0.007797   0.005999   0.000045
    67  C   -0.000845   0.000000  -0.026818  -0.010003  -0.005773  -0.005010
    68  C   -0.002124   0.000000   0.019341  -0.020640   0.009807  -0.006153
    69  C   -0.038031   0.000000   0.051420   0.009980  -0.033154  -0.090815
    70  C   -0.039641   0.000000  -0.056533  -0.019696  -0.018197  -0.092575
    71  C   -0.003263   0.000000  -0.022853  -0.000614   0.002488  -0.010247
    72  C   -0.039233   0.000000   0.012049   0.015372   0.033103  -0.089002
    73  C   -0.000933   0.000000  -0.006446   0.010029  -0.010704  -0.001167
    74  C   -0.000829   0.000000  -0.013729   0.005620   0.002722  -0.001183
    75  C   -0.002058   0.000000  -0.015263  -0.006144  -0.002225  -0.002069
    76  C   -0.002095   0.000000  -0.012762   0.007989   0.005466  -0.002108
    77  C   -0.001415   0.000000  -0.013468  -0.007773  -0.004085  -0.001416
    78  C   -0.001004   0.000000  -0.014330  -0.004573   0.002645  -0.001005
    79  C   -0.000911   0.000000  -0.008786  -0.012194  -0.002343  -0.000912
    80  C   -0.001324   0.000000  -0.009213  -0.012601   0.004742  -0.001324
    81  C   -0.002112   0.000000   0.004174  -0.013785  -0.006983  -0.002125
    82  C   -0.002449   0.000000  -0.008348  -0.013579   0.001739  -0.002460
    83  C   -0.000459   0.000000   0.002585  -0.012273   0.005008  -0.000681
    84  C   -0.000398   0.000000   0.009255  -0.007340   0.011686  -0.000629
    85  C   -0.001139   0.000000   0.005881  -0.015311  -0.010653  -0.005154
    86  C   -0.003035   0.000000   0.014888  -0.001757  -0.007227  -0.007040
    87  C   -0.037177   0.000000   0.013154   0.062605  -0.030629  -0.090013
    88  C   -0.040946   0.000000  -0.009092  -0.067152  -0.010609  -0.093683
    89  C   -0.040379   0.000000  -0.034359  -0.056407   0.012465  -0.093265
    90  C   -0.036935   0.000000   0.027550   0.055800   0.031233  -0.089775
    91  C   -0.002395   0.000000  -0.015294   0.016786  -0.008546  -0.006394
    92  C   -0.001137   0.000000  -0.015194  -0.016523   0.010696  -0.005258
    93  C    0.000246   0.000000  -0.010227  -0.009198  -0.006478   0.000190
    94  C   -0.000979   0.000000  -0.012066  -0.001697   0.002029  -0.001149
    95  C   -0.001135   0.000000  -0.003786  -0.014309  -0.001119  -0.001135
    96  C   -0.001481   0.000000  -0.010673  -0.010224   0.006298  -0.001483
    97  C   -0.001173   0.000000   0.000219  -0.015022  -0.002628  -0.001173
    98  C   -0.000988   0.000000  -0.001572  -0.015133   0.002725  -0.000989
    99  C   -0.001838   0.000000   0.007616  -0.013286  -0.002002  -0.001839
   100  C   -0.001889   0.000000   0.006617  -0.013801   0.003553  -0.001890
   101  C   -0.001354   0.000000   0.015383  -0.001315  -0.002610  -0.001367
   102  C   -0.001962   0.000000   0.007145  -0.013424   0.000952  -0.001975
   103  C   -0.003428   0.000000   0.006447  -0.024184   0.002425  -0.010423
   104  C   -0.039255   0.000000  -0.018474   0.011330   0.032114  -0.089034
   105  C   -0.000850   0.000000  -0.007333  -0.008918  -0.006678  -0.001077
   106  C   -0.000928   0.000000  -0.004161  -0.013559   0.003398  -0.001279
   107  C   -0.001966   0.000000   0.008036  -0.012912  -0.000950  -0.001978
   108  C   -0.001345   0.000000  -0.006563  -0.013934   0.002613  -0.001358
   109  C   -0.001890   0.000000   0.008652  -0.012625  -0.003576  -0.001890
   110  C   -0.001848   0.000000   0.007716  -0.013277   0.002002  -0.001849
   111  C   -0.000979   0.000000   0.013856  -0.006176  -0.002698  -0.000979
   112  C   -0.001163   0.000000   0.012863  -0.007678   0.002624  -0.001163
   113  C   -0.040946   0.000000   0.062695  -0.025698   0.010603  -0.093682
   114  C   -0.037173   0.000000  -0.060775   0.019946   0.030637  -0.090009
   115  C   -0.003026   0.000000  -0.005919  -0.013747   0.007224  -0.007031
   116  C   -0.001134   0.000000   0.010317  -0.012739   0.010633  -0.005149
   117  C   -0.000406   0.000000   0.001758  -0.011721  -0.011646  -0.000637
   118  C   -0.000452   0.000000   0.009322  -0.008356  -0.004976  -0.000675
   119  C   -0.002453   0.000000   0.015945   0.000429  -0.001764  -0.002464
   120  C   -0.002121   0.000000   0.009896  -0.010517   0.006964  -0.002134
   121  C   -0.039638   0.000000   0.045324   0.039127   0.018186  -0.092572
   122  C   -0.038028   0.000000  -0.034337  -0.039578   0.033126  -0.090812
   123  C   -0.002120   0.000000   0.008212  -0.027064  -0.009802  -0.006148
   124  C   -0.000831   0.000000   0.022035   0.018235   0.005791  -0.004995
   125  H    0.041940   0.000000  -0.018087   0.036668  -0.136496   0.100437
   126  H    0.047764   0.000000  -0.052021   0.010655  -0.140944   0.103837
   127  H    0.046488   0.000000   0.085240   0.017883  -0.121403   0.103374
   128  H    0.042061   0.000000  -0.032995  -0.023228  -0.136892   0.100499
   129  H    0.047586   0.000000  -0.001091  -0.052762  -0.140951   0.103675
   130  H    0.046336   0.000000  -0.028613   0.081058  -0.121925   0.103252
   131  H    0.042095   0.000000   0.010788  -0.039319   0.136539   0.100537
   132  H    0.042094   0.000000   0.028675  -0.028976  -0.136537   0.100538
   133  H    0.046333   0.000000  -0.055906   0.065295   0.121921   0.103250
   134  H    0.047586   0.000000   0.046219  -0.025456   0.140953   0.103675
   135  H    0.045559   0.000000   0.043676  -0.002803  -0.141049   0.102730
   136  H    0.046558   0.000000  -0.075596  -0.041856  -0.121702   0.103452
   137  H    0.042060   0.000000   0.036616   0.016953   0.136894   0.100498
   138  H    0.047646   0.000000   0.016386   0.050055  -0.140979   0.103738
   139  H    0.046076   0.000000   0.001920  -0.086356  -0.121443   0.102996
   140  H    0.046489   0.000000  -0.058114  -0.064871   0.121410   0.103375
   141  H    0.047764   0.000000   0.016763   0.050397   0.140943   0.103836
   142  H    0.041940   0.000000  -0.022693   0.034000   0.136496   0.100437
   143  H    0.046072   0.000000   0.073832  -0.044807   0.121447   0.102992
   144  H    0.047645   0.000000  -0.051512   0.010880   0.140983   0.103737
   145  H    0.046562   0.000000   0.074075   0.044514   0.121701   0.103456
   146  H    0.045561   0.000000  -0.019386  -0.039275   0.141044   0.102731
       Tot  -0.000038   0.000000   0.014968  -0.025935  -0.000023  -0.000038
 Hirshfeld charges with hydrogens summed into heavy atoms:
              Q-H       Q-CM5   
     1  C   -0.000924  -0.001275
     2  C   -0.000853  -0.001081
     3  C    0.002691   0.011409
     4  C   -0.003422  -0.010417
     5  C   -0.001502  -0.001504
     6  C   -0.001140  -0.001140
     7  C   -0.000982  -0.001152
     8  C    0.000236   0.000180
     9  C   -0.001121  -0.005241
    10  C   -0.002391  -0.006391
    11  C    0.010835   0.014068
    12  C    0.006116   0.010117
    13  C   -0.001305  -0.001305
    14  C   -0.000898  -0.000898
    15  C   -0.001014  -0.001014
    16  C   -0.001422  -0.001423
    17  C   -0.002097  -0.002110
    18  C   -0.002064  -0.002075
    19  C   -0.000824  -0.001177
    20  C   -0.000916  -0.001150
    21  C    0.002832   0.011502
    22  C   -0.003260  -0.010244
    23  C    0.000101   0.000045
    24  C   -0.001194  -0.001365
    25  C   -0.001352  -0.001353
    26  C   -0.001748  -0.001750
    27  C   -0.000953  -0.000953
    28  C   -0.000926  -0.000926
    29  C   -0.001742  -0.001744
    30  C   -0.001345  -0.001346
    31  C   -0.000930  -0.001101
    32  C    0.000134   0.000078
    33  C   -0.001078  -0.005199
    34  C   -0.002244  -0.006255
    35  C    0.010533   0.013787
    36  C    0.005990   0.010045
    37  C   -0.003247  -0.010228
    38  C    0.003392   0.012099
    39  C   -0.000860  -0.001094
    40  C   -0.000537  -0.000890
    41  C   -0.002209  -0.002220
    42  C   -0.002181  -0.002193
    43  C   -0.001491  -0.001492
    44  C   -0.000982  -0.000983
    45  C   -0.000971  -0.000971
    46  C   -0.001481  -0.001481
    47  C   -0.002178  -0.002191
    48  C   -0.002203  -0.002214
    49  C   -0.000542  -0.000896
    50  C   -0.000866  -0.001099
    51  C    0.003390   0.012098
    52  C   -0.003250  -0.010232
    53  C    0.005987   0.010043
    54  C    0.010535   0.013789
    55  C   -0.002242  -0.006254
    56  C   -0.001088  -0.005210
    57  C    0.000125   0.000069
    58  C   -0.000926  -0.001096
    59  C   -0.001342  -0.001342
    60  C   -0.001751  -0.001753
    61  C   -0.000926  -0.000926
    62  C   -0.000952  -0.000952
    63  C   -0.001755  -0.001757
    64  C   -0.001354  -0.001355
    65  C   -0.001188  -0.001359
    66  C    0.000101   0.000045
    67  C   -0.000845  -0.005010
    68  C   -0.002124  -0.006153
    69  C    0.007529   0.011915
    70  C    0.006917   0.010877
    71  C   -0.003263  -0.010247
    72  C    0.002827   0.011496
    73  C   -0.000933  -0.001167
    74  C   -0.000829  -0.001183
    75  C   -0.002058  -0.002069
    76  C   -0.002095  -0.002108
    77  C   -0.001415  -0.001416
    78  C   -0.001004  -0.001005
    79  C   -0.000911  -0.000912
    80  C   -0.001324  -0.001324
    81  C   -0.002112  -0.002125
    82  C   -0.002449  -0.002460
    83  C   -0.000459  -0.000681
    84  C   -0.000398  -0.000629
    85  C   -0.001139  -0.005154
    86  C   -0.003035  -0.007040
    87  C    0.010469   0.013725
    88  C    0.005130   0.009313
    89  C    0.006109   0.010110
    90  C    0.010829   0.014062
    91  C   -0.002395  -0.006394
    92  C   -0.001137  -0.005258
    93  C    0.000246   0.000190
    94  C   -0.000979  -0.001149
    95  C   -0.001135  -0.001135
    96  C   -0.001481  -0.001483
    97  C   -0.001173  -0.001173
    98  C   -0.000988  -0.000989
    99  C   -0.001838  -0.001839
   100  C   -0.001889  -0.001890
   101  C   -0.001354  -0.001367
   102  C   -0.001962  -0.001975
   103  C   -0.003428  -0.010423
   104  C    0.002684   0.011403
   105  C   -0.000850  -0.001077
   106  C   -0.000928  -0.001279
   107  C   -0.001966  -0.001978
   108  C   -0.001345  -0.001358
   109  C   -0.001890  -0.001890
   110  C   -0.001848  -0.001849
   111  C   -0.000979  -0.000979
   112  C   -0.001163  -0.001163
   113  C    0.005127   0.009310
   114  C    0.010472   0.013728
   115  C   -0.003026  -0.007031
   116  C   -0.001134  -0.005149
   117  C   -0.000406  -0.000637
   118  C   -0.000452  -0.000675
   119  C   -0.002453  -0.002464
   120  C   -0.002121  -0.002134
   121  C    0.006924   0.010884
   122  C    0.007533   0.011918
   123  C   -0.002120  -0.006148
   124  C   -0.000831  -0.004995
 
 EQQ=  0.00000000000     EQD=  0.00000000000     EDD= 0.245502735358E-01
 EQQ+QD+DD= 0.245502735358E-01
 
 1\1\GINC-CU10\SP\RB3LYP\6-311G(d)\C124H22\WANG\09-Jul-2025\0\\# B3LYP/
 6-311G* Pop=Hirshfeld NOSYMM\\From ../../cnt_7_4-1_opt.out\\0,1\C,0,3.
 759249,0.401466,2.417761\C,0,3.646751,-1.007504,2.63075\C,0,3.147055,2
 .204861,0.88865\C,0,3.677997,0.925287,1.089601\C,0,3.715654,0.778526,4
 .853605\C,0,3.743303,-0.628599,5.072004\C,0,2.878803,2.508353,3.29398\
 C,0,3.564589,1.27893,3.518689\C,0,1.319727,3.66249,1.747864\C,0,2.5390
 23,2.904036,1.954698\C,0,-0.584578,3.880555,0.235487\C,0,0.766818,3.90
 9911,0.44555\C,0,3.636126,1.142179,7.292141\C,0,3.806607,-0.259949,7.5
 10721\C,0,2.623974,2.776032,5.74305\C,0,3.446497,1.630034,5.961521\C,0
 ,0.949175,3.699753,4.195271\C,0,2.223274,3.111135,4.412303\C,0,-0.9656
 41,3.696552,2.643244\C,0,0.445422,3.802301,2.856394\C,0,-2.646814,2.80
 7701,1.109171\C,0,-1.471962,3.545073,1.315546\C,0,3.487629,1.479311,9.
 732393\C,0,3.814245,0.110466,9.957093\C,0,2.327288,3.008523,8.182515\C
 ,0,3.259394,1.95081,8.398759\C,0,0.572721,3.778357,6.631026\C,0,1.9020
 25,3.3083,6.850526\C,0,-1.332049,3.578247,5.077351\C,0,0.055978,3.8195
 1,5.298083\C,0,-2.902943,2.482108,3.51071\C,0,-1.800567,3.355471,3.741
 092\C,0,-3.786633,0.758221,1.95937\C,0,-3.234931,2.086445,2.169065\C,0
 ,-3.701308,-1.160685,0.4516\C,0,-3.933648,0.172879,0.658106\C,0,3.3478
 24,1.821607,12.159014\C,0,3.819338,0.513046,12.358483\C,0,2.006947,3.2
 24166,10.625293\C,0,3.044557,2.260224,10.834414\C,0,0.193941,3.813769,
 9.068044\C,0,1.554213,3.468613,9.286519\C,0,-1.68503,3.436736,7.513639
 \C,0,-0.325324,3.811885,7.736624\C,0,-3.138526,2.187641,5.957304\C,0,-
 2.133794,3.177539,6.180264\C,0,-3.781141,0.388258,4.407506\C,0,-3.3998
 22,1.738845,4.625905\C,0,-3.480131,-1.506704,2.859677\C,0,-3.796052,-0
 .126079,3.068758\C,0,-2.35435,-3.051198,1.335575\C,0,-3.252026,-1.9887
 31,1.53508\C,0,1.81666,3.492744,13.03596\C,0,2.855251,2.624596,13.2425
 15\C,0,-0.189669,3.844882,11.524878\C,0,1.236415,3.658304,11.734648\C,
 0,-2.005772,3.237263,9.952782\C,0,-0.698245,3.755165,10.183209\C,0,-3.
 335887,1.861341,8.395854\C,0,-2.432899,2.942787,8.616533\C,0,-3.816269
 ,0.006978,6.843509\C,0,-3.558699,1.393242,7.062937\C,0,-3.319229,-1.84
 7306,5.295327\C,0,-3.769256,-0.511247,5.511546\C,0,-2.002901,-3.247903
 ,3.73693\C,0,-3.025058,-2.280698,3.961685\C,0,-0.170223,-3.89911,2.192
 174\C,0,-1.566276,-3.531806,2.397977\C,0,1.717711,-3.559483,0.686283\C
 ,0,0.430715,-3.990351,0.901292\C,0,-2.334514,3.047787,12.378322\C,0,-1
 .108447,3.696449,12.584721\C,0,-3.515778,1.515676,10.837545\C,0,-2.718
 783,2.684926,11.050631\C,0,-3.805849,-0.369763,9.281761\C,0,-3.678614,
 1.027954,9.498713\C,0,-3.134839,-2.169637,7.732535\C,0,-3.716127,-0.88
 436,7.951012\C,0,-1.678206,-3.426586,6.183292\C,0,-2.807282,-2.577888,
 6.401917\C,0,0.197867,-3.808912,4.635693\C,0,-1.195094,-3.626991,4.853
 707\C,0,2.028464,-3.238861,3.072631\C,0,0.709857,-3.757277,3.294862\C,
 0,3.359544,-1.853266,1.523405\C,0,2.469522,-2.961513,1.745397\C,0,3.84
 6981,-0.004965,0.004273\C,0,3.664295,-1.342724,0.213377\C,0,-3.769718,
 1.291267,13.248373\C,0,-3.06879,2.447068,13.458375\C,0,-3.784043,-0.74
 6568,11.739354\C,0,-3.831688,0.688589,11.946108\C,0,-2.889669,-2.44746
 1,10.175396\C,0,-3.611366,-1.238781,10.400105\C,0,-1.327207,-3.555999,
 8.621996\C,0,-2.531956,-2.828492,8.840444\C,0,0.577932,-3.773207,7.071
 552\C,0,-0.83228,-3.718599,7.291465\C,0,2.338073,-3.018421,5.518545\C,
 0,1.083165,-3.663294,5.739546\C,0,3.482492,-1.492318,3.966501\C,0,2.71
 5551,-2.665942,4.187735\C,0,-2.639926,-2.722341,12.60448\C,0,-3.482474
 ,-1.622616,12.805427\C,0,-0.950703,-3.66209,11.063268\C,0,-2.227078,-3
 .054818,11.276314\C,0,0.951053,-3.684732,9.506159\C,0,-0.448796,-3.762
 128,9.727471\C,0,2.630968,-2.769735,7.954353\C,0,1.445035,-3.534016,8.
 175349\C,0,3.636636,-1.138535,6.402513\C,0,2.978776,-2.387118,6.622356
 \C,0,-0.668925,-3.844521,13.48067\C,0,-1.918705,-3.333665,13.689821\C,
 0,1.330239,-3.619817,11.948471\C,0,-0.074544,-3.836232,12.170568\C,0,2
 .899145,-2.493636,10.399025\C,0,1.790836,-3.376384,10.621228\C,0,3.738
 68,-0.778611,8.840278\C,0,3.199774,-2.075922,9.058232\C,0,3.240707,-2.
 368683,12.79257\C,0,2.224201,-3.26796,13.007529\C,0,3.841705,-0.409688
 ,11.296024\C,0,3.461938,-1.802401,11.501742\H,0,2.963788,2.51773,-0.13
 4388\H,0,-0.982915,3.963938,-0.772615\H,0,1.43253,4.024567,-0.404831\H
 ,0,-2.923902,2.582811,0.084071\H,0,-3.712286,-1.566238,-0.557025\H,0,-
 4.134011,0.812424,-0.196419\H,0,3.893998,0.159093,13.381988\H,0,-2.085
 067,-3.292701,0.312067\H,0,1.362871,3.985969,13.89047\H,0,3.211823,2.4
 31177,14.251158\H,0,2.097394,-3.533319,-0.330087\H,0,-0.168574,-4.2968
 32,0.048921\H,0,-0.77515,3.823917,13.609829\H,0,3.975321,0.378197,-1.0
 05025\H,0,3.655059,-2.016413,-0.638209\H,0,-4.201894,0.772139,14.09877
 3\H,0,-2.941975,2.833841,14.466454\H,0,-3.661665,-1.307408,13.828469\H
 ,0,-0.080791,-4.173165,14.332277\H,0,-2.31453,-3.252934,14.699163\H,0,
 3.805929,-2.003122,13.644915\H,0,2.011904,-3.583988,14.02385\\Version=
 ES64L-G16RevB.01\HF=-4739.7118139\RMSD=3.784e-09\Dipole=0.0333963,-0.0
 575844,-0.0000371\Quadrupole=-39.6114198,-39.0060645,78.6174843,-0.531
 0516,1.8773278,0.087338\PG=C01 [X(C124H22)]\\@


 IF AT FIRST YOU DON'T SUCCEED, TRY, TRY AGAIN.
 THEN GIVE UP;
 THERE'S NO USE BEING A DAMN FOOL ABOUT IT.

                                 -- W. C. FIELDS
 Job cpu time:       0 days 10 hours 18 minutes  8.4 seconds.
 Elapsed time:       0 days  0 hours 22 minutes 12.4 seconds.
 File lengths (MBytes):  RWF=   2831 Int=      0 D2E=      0 Chk=    304 Scr=      1
 Normal termination of Gaussian 16 at Wed Jul  9 00:04:16 2025.
