 Entering Gaussian System, Link 0=g16
 Initial command:
 /opt/software/g16/l1.exe "/tmp/cnt_5_5-2_sgp-33922.tmp/Gau-45248.inp" -scrdir="/tmp/cnt_5_5-2_sgp-33922.tmp/"
 Entering Link 1 = /opt/software/g16/l1.exe PID=     45249.
  
 Copyright (c) 1988-2017, Gaussian, Inc.  All Rights Reserved.
  
 This is part of the Gaussian(R) 16 program.  It is based on
 the Gaussian(R) 09 system (copyright 2009, Gaussian, Inc.),
 the Gaussian(R) 03 system (copyright 2003, Gaussian, Inc.),
 the Gaussian(R) 98 system (copyright 1998, Gaussian, Inc.),
 the Gaussian(R) 94 system (copyright 1995, Gaussian, Inc.),
 the Gaussian 92(TM) system (copyright 1992, Gaussian, Inc.),
 the Gaussian 90(TM) system (copyright 1990, Gaussian, Inc.),
 the Gaussian 88(TM) system (copyright 1988, Gaussian, Inc.),
 the Gaussian 86(TM) system (copyright 1986, Carnegie Mellon
 University), and the Gaussian 82(TM) system (copyright 1983,
 Carnegie Mellon University). Gaussian is a federally registered
 trademark of Gaussian, Inc.
  
 This software contains proprietary and confidential information,
 including trade secrets, belonging to Gaussian, Inc.
  
 This software is provided under written license and may be
 used, copied, transmitted, or stored only in accord with that
 written license.
  
 The following legend is applicable only to US Government
 contracts under FAR:
  
                    RESTRICTED RIGHTS LEGEND
  
 Use, reproduction and disclosure by the US Government is
 subject to restrictions as set forth in subparagraphs (a)
 and (c) of the Commercial Computer Software - Restricted
 Rights clause in FAR 52.227-19.
  
 Gaussian, Inc.
 340 Quinnipiac St., Bldg. 40, Wallingford CT 06492
  
  
 ---------------------------------------------------------------
 Warning -- This program may not be used in any manner that
 competes with the business of Gaussian, Inc. or will provide
 assistance to any competitor of Gaussian, Inc.  The licensee
 of this program is prohibited from giving any competitor of
 Gaussian, Inc. access to this program.  By using this program,
 the user acknowledges that Gaussian, Inc. is engaged in the
 business of creating and licensing software in the field of
 computational chemistry and represents and warrants to the
 licensee that it is not a competitor of Gaussian, Inc. and that
 it will not use this program in any manner prohibited above.
 ---------------------------------------------------------------
  

 Cite this work as:
 Gaussian 16, Revision B.01,
 M. J. Frisch, G. W. Trucks, H. B. Schlegel, G. E. Scuseria, 
 M. A. Robb, J. R. Cheeseman, G. Scalmani, V. Barone, 
 G. A. Petersson, H. Nakatsuji, X. Li, M. Caricato, A. V. Marenich, 
 J. Bloino, B. G. Janesko, R. Gomperts, B. Mennucci, H. P. Hratchian, 
 J. V. Ortiz, A. F. Izmaylov, J. L. Sonnenberg, D. Williams-Young, 
 F. Ding, F. Lipparini, F. Egidi, J. Goings, B. Peng, A. Petrone, 
 T. Henderson, D. Ranasinghe, V. G. Zakrzewski, J. Gao, N. Rega, 
 G. Zheng, W. Liang, M. Hada, M. Ehara, K. Toyota, R. Fukuda, 
 J. Hasegawa, M. Ishida, T. Nakajima, Y. Honda, O. Kitao, H. Nakai, 
 T. Vreven, K. Throssell, J. A. Montgomery, Jr., J. E. Peralta, 
 F. Ogliaro, M. J. Bearpark, J. J. Heyd, E. N. Brothers, K. N. Kudin, 
 V. N. Staroverov, T. A. Keith, R. Kobayashi, J. Normand, 
 K. Raghavachari, A. P. Rendell, J. C. Burant, S. S. Iyengar, 
 J. Tomasi, M. Cossi, J. M. Millam, M. Klene, C. Adamo, R. Cammi, 
 J. W. Ochterski, R. L. Martin, K. Morokuma, O. Farkas, 
 J. B. Foresman, and D. J. Fox, Gaussian, Inc., Wallingford CT, 2016.
 
 ******************************************
 Gaussian 16:  ES64L-G16RevB.01 20-Dec-2017
                 8-Jul-2025 
 ******************************************
 %nproc=18
 Will use up to   18 processors via shared memory.
 ------------------------------------
 # B3LYP/6-311G* Pop=Hirshfeld NOSYMM
 ------------------------------------
 1/38=1,172=1/1;
 2/12=2,15=1,17=6,18=5,40=1/2;
 3/5=4,6=6,7=1,11=2,25=1,30=1,74=-5/1,2,3;
 4//1;
 5/5=2,38=5/2;
 6/7=2,8=2,9=2,10=2,28=1,79=1/1;
 99/5=1,9=1/99;
 ----------------------------
 From ../../cnt_5_5-2_opt.out
 ----------------------------
 Symbolic Z-matrix:
 Charge =  0 Multiplicity = 1
 6                     2.80113   2.04148   1.23401 
 6                     3.39206   0.71518   1.23409 
 6                     2.86666   2.02377   3.666 
 6                     3.42245   0.7758    3.66606 
 6                     1.12918   3.32118   0.02314 
 6                     2.31251   2.63844   0.0231 
 6                     1.06581   3.29712   2.45511 
 6                     2.32358   2.57161   2.45506 
 6                    -1.07618   3.29347   1.23409 
 6                     0.36784   3.4453    1.23408 
 6                    -1.03892   3.3499    3.66611 
 6                     0.31973   3.49274   3.66609 
 6                    -2.81079   2.10014   0.02316 
 6                    -1.79512   3.0138    0.02317 
 6                    -2.80766   2.03246   2.45512 
 6                    -1.72806   3.00344   2.45515 
 6                    -3.46665  -0.00561   1.23411 
 6                    -3.16464   1.41466   1.23409 
 6                    -3.50924   0.0474    3.66606 
 6                    -3.22505   1.38366   3.66602 
 6                    -2.86666  -2.02377   0.02327 
 6                    -3.42245  -0.7758    0.0232 
 6                    -2.80113  -2.04148   2.45526 
 6                    -3.39206  -0.71518   2.45518 
 6                    -1.06581  -3.29712   1.23415 
 6                    -2.32358  -2.57161   1.23421 
 6                    -1.12918  -3.32118   3.66613 
 6                    -2.31251  -2.63844   3.66617 
 6                     1.03893  -3.3499    0.02316 
 6                    -0.31973  -3.49274   0.02318 
 6                     1.07618  -3.29347   2.45518 
 6                    -0.36784  -3.4453    2.45519 
 6                     2.80766  -2.03246   1.23415 
 6                     1.72806  -3.00344   1.23412 
 6                     2.81079  -2.10014   3.66611 
 6                     1.79512  -3.0138    3.6661 
 6                     3.50924  -0.0474    0.02321 
 6                     3.22505  -1.38366   0.02325 
 6                     3.46665   0.00561   2.45516 
 6                     3.16464  -1.41466   2.45518 
 1                     2.71526   2.53696   4.6103 
 1                     3.70254   0.32003   4.61042 
 1                     0.70501   3.6472   -0.92119 
 1                     2.807     2.4344   -0.92127 
 1                    -1.57365   3.36427   4.61048 
 1                     0.8398    3.61793   4.61046 
 1                    -3.25216   1.79782  -0.92119 
 1                    -1.44802   3.42087  -0.92118 
 1                    -3.68863  -0.45663   4.6104 
 1                    -3.18372   1.91707   4.61035 
 1                    -2.71526  -2.53696  -0.92103 
 1                    -3.70254  -0.32003  -0.92115 
 1                    -0.70501  -3.6472    4.61046 
 1                    -2.807    -2.4344    4.61054 
 1                     1.57365  -3.36427  -0.92122 
 1                    -0.8398   -3.61793  -0.92119 
 1                     3.25216  -1.79782   4.61046 
 1                     1.44802  -3.42087   4.61045 
 1                     3.68863   0.45663  -0.92113 
 1                     3.18372  -1.91707  -0.92108 
 
 Symmetry turned off by external request.
 Stoichiometry    C40H20
 Framework group  CI[X(C40H20)]
 Deg. of freedom    87
 Full point group                 CI      NOp   2
                          Input orientation:                          
 ---------------------------------------------------------------------
 Center     Atomic      Atomic             Coordinates (Angstroms)
 Number     Number       Type             X           Y           Z
 ---------------------------------------------------------------------
      1          6           0        2.801128    2.041478    1.234011
      2          6           0        3.392061    0.715177    1.234087
      3          6           0        2.866658    2.023774    3.666001
      4          6           0        3.422445    0.775802    3.666064
      5          6           0        1.129182    3.321178    0.023141
      6          6           0        2.312513    2.638444    0.023100
      7          6           0        1.065808    3.297118    2.455114
      8          6           0        2.323578    2.571607    2.455056
      9          6           0       -1.076180    3.293467    1.234087
     10          6           0        0.367838    3.445299    1.234078
     11          6           0       -1.038924    3.349895    3.666111
     12          6           0        0.319730    3.492735    3.666089
     13          6           0       -2.810792    2.100141    0.023157
     14          6           0       -1.795117    3.013801    0.023165
     15          6           0       -2.807656    2.032459    2.455123
     16          6           0       -1.728060    3.003435    2.455151
     17          6           0       -3.466648   -0.005612    1.234111
     18          6           0       -3.164637    1.414656    1.234086
     19          6           0       -3.509238    0.047395    3.666056
     20          6           0       -3.225054    1.383660    3.666021
     21          6           0       -2.866657   -2.023774    0.023267
     22          6           0       -3.422445   -0.775802    0.023204
     23          6           0       -2.801128   -2.041478    2.455257
     24          6           0       -3.392061   -0.715177    2.455181
     25          6           0       -1.065808   -3.297118    1.234154
     26          6           0       -2.323578   -2.571607    1.234212
     27          6           0       -1.129182   -3.321178    3.666127
     28          6           0       -2.312513   -2.638444    3.666168
     29          6           0        1.038925   -3.349895    0.023157
     30          6           0       -0.319729   -3.492735    0.023179
     31          6           0        1.076180   -3.293467    2.455181
     32          6           0       -0.367838   -3.445298    2.455190
     33          6           0        2.807656   -2.032459    1.234145
     34          6           0        1.728060   -3.003435    1.234117
     35          6           0        2.810792   -2.100141    3.666111
     36          6           0        1.795117   -3.013800    3.666103
     37          6           0        3.509239   -0.047395    0.023212
     38          6           0        3.225054   -1.383660    0.023247
     39          6           0        3.466649    0.005612    2.455157
     40          6           0        3.164637   -1.414656    2.455182
     41          1           0        2.715255    2.536955    4.610302
     42          1           0        3.702538    0.320030    4.610422
     43          1           0        0.705006    3.647196   -0.921194
     44          1           0        2.806998    2.434397   -0.921273
     45          1           0       -1.573650    3.364269    4.610484
     46          1           0        0.839803    3.617926    4.610457
     47          1           0       -3.252160    1.797823   -0.921191
     48          1           0       -1.448017    3.420874   -0.921184
     49          1           0       -3.688626   -0.456627    4.610395
     50          1           0       -3.183715    1.917072    4.610347
     51          1           0       -2.715255   -2.536955   -0.921034
     52          1           0       -3.702538   -0.320030   -0.921154
     53          1           0       -0.705006   -3.647196    4.610462
     54          1           0       -2.806998   -2.434397    4.610541
     55          1           0        1.573650   -3.364269   -0.921216
     56          1           0       -0.839803   -3.617926   -0.921189
     57          1           0        3.252160   -1.797823    4.610459
     58          1           0        1.448017   -3.420874    4.610452
     59          1           0        3.688626    0.456627   -0.921127
     60          1           0        3.183716   -1.917072   -0.921079
 ---------------------------------------------------------------------
 Rotational constants (GHZ):           0.1233765           0.1232979           0.0826418
 Standard basis: 6-311G(d) (5D, 7F)
   780 basis functions,  1380 primitive gaussians,   820 cartesian basis functions
   130 alpha electrons      130 beta electrons
       nuclear repulsion energy      4230.8624471092 Hartrees.
 NAtoms=   60 NActive=   60 NUniq=   60 SFac= 1.00D+00 NAtFMM=   60 NAOKFM=T Big=T
 Integral buffers will be    131072 words long.
 Raffenetti 2 integral format.
 Two-electron integral symmetry is turned off.
 One-electron integrals computed using PRISM.
 NBasis=   780 RedAO= T EigKep=  6.96D-05  NBF=   780
 NBsUse=   780 1.00D-06 EigRej= -1.00D+00 NBFU=   780
 ExpMin= 1.03D-01 ExpMax= 4.56D+03 ExpMxC= 6.82D+02 IAcc=3 IRadAn=         5 AccDes= 0.00D+00
 Harris functional with IExCor=  402 and IRadAn=       5 diagonalized for initial guess.
 HarFok:  IExCor=  402 AccDes= 0.00D+00 IRadAn=         5 IDoV= 1 UseB2=F ITyADJ=14
 ICtDFT=  3500011 ScaDFX=  1.000000  1.000000  1.000000  1.000000
 FoFCou: FMM=F IPFlag=           0 FMFlag=      100000 FMFlg1=        2001
         NFxFlg=           0 DoJE=T BraDBF=F KetDBF=T FulRan=T
         wScrn=  0.000000 ICntrl=       500 IOpCl=  0 I1Cent=   200000004 NGrid=           0
         NMat0=    1 NMatS0=      1 NMatT0=    0 NMatD0=    1 NMtDS0=    0 NMtDT0=    0
 Symmetry not used in FoFCou.
 Requested convergence on RMS density matrix=1.00D-08 within 128 cycles.
 Requested convergence on MAX density matrix=1.00D-06.
 Requested convergence on             energy=1.00D-06.
 No special actions if energy rises.
 Integral accuracy reduced to 1.0D-05 until final iterations.
 Initial convergence to 1.0D-05 achieved.  Increase integral accuracy.
 SCF Done:  E(RB3LYP) =  -1536.51695598     A.U. after   13 cycles
            NFock= 13  Conv=0.66D-08     -V/T= 2.0044

 **********************************************************************

            Population analysis using the SCF Density.

 **********************************************************************

 Alpha  occ. eigenvalues --  -10.19367 -10.19366 -10.19366 -10.19362 -10.19362
 Alpha  occ. eigenvalues --  -10.19354 -10.19354 -10.19344 -10.19344 -10.19337
 Alpha  occ. eigenvalues --  -10.19323 -10.19315 -10.19315 -10.19303 -10.19303
 Alpha  occ. eigenvalues --  -10.19294 -10.19294 -10.19289 -10.19289 -10.19287
 Alpha  occ. eigenvalues --  -10.18237 -10.18237 -10.18237 -10.18237 -10.18236
 Alpha  occ. eigenvalues --  -10.18236 -10.18236 -10.18236 -10.18235 -10.18235
 Alpha  occ. eigenvalues --  -10.18172 -10.18172 -10.18172 -10.18172 -10.18172
 Alpha  occ. eigenvalues --  -10.18172 -10.18171 -10.18171 -10.18171 -10.18171
 Alpha  occ. eigenvalues --   -0.90608  -0.89639  -0.89639  -0.86815  -0.86815
 Alpha  occ. eigenvalues --   -0.82531  -0.82531  -0.82163  -0.81451  -0.81450
 Alpha  occ. eigenvalues --   -0.78196  -0.78195  -0.75768  -0.75767  -0.75010
 Alpha  occ. eigenvalues --   -0.75010  -0.72247  -0.72246  -0.71639  -0.70680
 Alpha  occ. eigenvalues --   -0.65958  -0.64171  -0.64171  -0.63816  -0.63815
 Alpha  occ. eigenvalues --   -0.62529  -0.60777  -0.60777  -0.60503  -0.60502
 Alpha  occ. eigenvalues --   -0.55954  -0.55954  -0.54155  -0.53134  -0.53134
 Alpha  occ. eigenvalues --   -0.52909  -0.52047  -0.51162  -0.51161  -0.49473
 Alpha  occ. eigenvalues --   -0.49471  -0.48430  -0.48429  -0.47127  -0.47126
 Alpha  occ. eigenvalues --   -0.45221  -0.45100  -0.45100  -0.43869  -0.43869
 Alpha  occ. eigenvalues --   -0.43325  -0.43297  -0.43207  -0.43205  -0.42433
 Alpha  occ. eigenvalues --   -0.42432  -0.41824  -0.41824  -0.41066  -0.41066
 Alpha  occ. eigenvalues --   -0.40770  -0.40770  -0.40406  -0.39750  -0.39750
 Alpha  occ. eigenvalues --   -0.36871  -0.36871  -0.35839  -0.35838  -0.34089
 Alpha  occ. eigenvalues --   -0.34088  -0.33179  -0.33179  -0.33041  -0.32963
 Alpha  occ. eigenvalues --   -0.31902  -0.31902  -0.31518  -0.31497  -0.31496
 Alpha  occ. eigenvalues --   -0.28463  -0.28462  -0.24934  -0.24934  -0.24106
 Alpha  occ. eigenvalues --   -0.24104  -0.22062  -0.22061  -0.21165  -0.18873
 Alpha virt. eigenvalues --   -0.07851  -0.04799  -0.04797  -0.04724  -0.03492
 Alpha virt. eigenvalues --   -0.03491  -0.02647  -0.02645  -0.00160  -0.00159
 Alpha virt. eigenvalues --    0.03708   0.04408   0.04442   0.04443   0.04596
 Alpha virt. eigenvalues --    0.04598   0.05062   0.05062   0.05955   0.05956
 Alpha virt. eigenvalues --    0.07231   0.07233   0.07726   0.07726   0.08216
 Alpha virt. eigenvalues --    0.09227   0.09228   0.11916   0.11926   0.12969
 Alpha virt. eigenvalues --    0.12970   0.13015   0.13473   0.13473   0.17102
 Alpha virt. eigenvalues --    0.17106   0.17178   0.17182   0.19553   0.21657
 Alpha virt. eigenvalues --    0.21843   0.21844   0.22227   0.22519   0.22519
 Alpha virt. eigenvalues --    0.22589   0.23083   0.23084   0.24538   0.24542
 Alpha virt. eigenvalues --    0.25228   0.26031   0.26032   0.27771   0.27772
 Alpha virt. eigenvalues --    0.27979   0.27980   0.30234   0.30235   0.30483
 Alpha virt. eigenvalues --    0.30483   0.31349   0.31349   0.31390   0.32596
 Alpha virt. eigenvalues --    0.32598   0.32990   0.32991   0.33118   0.33684
 Alpha virt. eigenvalues --    0.35414   0.35417   0.35659   0.35831   0.36527
 Alpha virt. eigenvalues --    0.36528   0.37018   0.37019   0.37355   0.37356
 Alpha virt. eigenvalues --    0.38547   0.39003   0.39008   0.39385   0.41025
 Alpha virt. eigenvalues --    0.41027   0.41123   0.41125   0.41415   0.41417
 Alpha virt. eigenvalues --    0.41907   0.42258   0.42264   0.42270   0.42580
 Alpha virt. eigenvalues --    0.42651   0.42652   0.43446   0.43448   0.43531
 Alpha virt. eigenvalues --    0.43534   0.44059   0.44454   0.44455   0.44675
 Alpha virt. eigenvalues --    0.45046   0.45046   0.45448   0.45451   0.46388
 Alpha virt. eigenvalues --    0.46391   0.46845   0.46916   0.46920   0.46921
 Alpha virt. eigenvalues --    0.47492   0.47494   0.47994   0.47996   0.48465
 Alpha virt. eigenvalues --    0.48465   0.48721   0.48722   0.48779   0.48781
 Alpha virt. eigenvalues --    0.48910   0.48910   0.49854   0.49855   0.50038
 Alpha virt. eigenvalues --    0.51342   0.51345   0.54253   0.54257   0.54807
 Alpha virt. eigenvalues --    0.54808   0.54959   0.55548   0.55548   0.55593
 Alpha virt. eigenvalues --    0.55593   0.56873   0.57578   0.57580   0.57790
 Alpha virt. eigenvalues --    0.57793   0.58127   0.58892   0.58895   0.59165
 Alpha virt. eigenvalues --    0.59166   0.60532   0.60954   0.60955   0.61069
 Alpha virt. eigenvalues --    0.61069   0.61823   0.61826   0.62574   0.62578
 Alpha virt. eigenvalues --    0.62888   0.62889   0.63503   0.63504   0.63574
 Alpha virt. eigenvalues --    0.63760   0.64492   0.64493   0.64692   0.65353
 Alpha virt. eigenvalues --    0.65357   0.66190   0.66200   0.68111   0.68112
 Alpha virt. eigenvalues --    0.68127   0.68132   0.69751   0.70153   0.70154
 Alpha virt. eigenvalues --    0.70359   0.70962   0.70962   0.71956   0.71993
 Alpha virt. eigenvalues --    0.71995   0.72194   0.72195   0.73460   0.73466
 Alpha virt. eigenvalues --    0.73488   0.73504   0.73506   0.73865   0.73866
 Alpha virt. eigenvalues --    0.74201   0.74695   0.74696   0.75708   0.76396
 Alpha virt. eigenvalues --    0.76399   0.78048   0.78052   0.80682   0.80683
 Alpha virt. eigenvalues --    0.81216   0.82302   0.82303   0.82884   0.82890
 Alpha virt. eigenvalues --    0.83091   0.83098   0.84100   0.84101   0.84515
 Alpha virt. eigenvalues --    0.84915   0.85116   0.85116   0.85742   0.85744
 Alpha virt. eigenvalues --    0.87336   0.87339   0.87739   0.87740   0.87840
 Alpha virt. eigenvalues --    0.90116   0.90508   0.90511   0.92581   0.92597
 Alpha virt. eigenvalues --    0.92684   0.93375   0.93379   0.94644   0.96172
 Alpha virt. eigenvalues --    0.96181   0.96286   0.96286   0.99104   1.00094
 Alpha virt. eigenvalues --    1.00095   1.01211   1.01590   1.01591   1.02462
 Alpha virt. eigenvalues --    1.02469   1.03361   1.03368   1.03606   1.04145
 Alpha virt. eigenvalues --    1.04149   1.05947   1.07099   1.07103   1.08388
 Alpha virt. eigenvalues --    1.08390   1.10584   1.10584   1.11359   1.11367
 Alpha virt. eigenvalues --    1.12468   1.12472   1.12478   1.12483   1.12896
 Alpha virt. eigenvalues --    1.14849   1.14851   1.15790   1.15924   1.15926
 Alpha virt. eigenvalues --    1.16669   1.16964   1.18533   1.18538   1.20471
 Alpha virt. eigenvalues --    1.20474   1.22603   1.22608   1.22988   1.23361
 Alpha virt. eigenvalues --    1.25189   1.26349   1.26350   1.27040   1.27044
 Alpha virt. eigenvalues --    1.27396   1.27404   1.27615   1.27618   1.28237
 Alpha virt. eigenvalues --    1.31883   1.31890   1.33544   1.33548   1.37664
 Alpha virt. eigenvalues --    1.37668   1.38152   1.38154   1.38843   1.40637
 Alpha virt. eigenvalues --    1.41176   1.42072   1.42911   1.42912   1.44100
 Alpha virt. eigenvalues --    1.44105   1.44891   1.44902   1.45682   1.45683
 Alpha virt. eigenvalues --    1.47678   1.47682   1.47827   1.47969   1.47969
 Alpha virt. eigenvalues --    1.48411   1.48413   1.48714   1.51826   1.51827
 Alpha virt. eigenvalues --    1.52363   1.53063   1.53064   1.54230   1.54364
 Alpha virt. eigenvalues --    1.54367   1.55176   1.55176   1.56174   1.56176
 Alpha virt. eigenvalues --    1.56746   1.56748   1.57014   1.57014   1.60013
 Alpha virt. eigenvalues --    1.60014   1.63237   1.63240   1.65641   1.65642
 Alpha virt. eigenvalues --    1.66350   1.66548   1.66550   1.66667   1.67319
 Alpha virt. eigenvalues --    1.67322   1.67968   1.67971   1.68338   1.68485
 Alpha virt. eigenvalues --    1.70052   1.70053   1.71874   1.71877   1.72711
 Alpha virt. eigenvalues --    1.73418   1.73420   1.77071   1.77833   1.77836
 Alpha virt. eigenvalues --    1.79207   1.79214   1.80113   1.80115   1.82191
 Alpha virt. eigenvalues --    1.82194   1.83479   1.83570   1.83574   1.85270
 Alpha virt. eigenvalues --    1.85273   1.86244   1.87585   1.88748   1.88750
 Alpha virt. eigenvalues --    1.89030   1.89554   1.90172   1.90177   1.90200
 Alpha virt. eigenvalues --    1.90205   1.91310   1.91312   1.91788   1.91793
 Alpha virt. eigenvalues --    1.92335   1.92577   1.92580   1.92780   1.92783
 Alpha virt. eigenvalues --    1.93318   1.95722   1.95727   1.98185   1.98188
 Alpha virt. eigenvalues --    1.98292   1.99998   2.00001   2.01404   2.01407
 Alpha virt. eigenvalues --    2.05839   2.05842   2.08049   2.08054   2.08265
 Alpha virt. eigenvalues --    2.08266   2.09967   2.10734   2.10736   2.11064
 Alpha virt. eigenvalues --    2.11115   2.11116   2.13013   2.13189   2.13194
 Alpha virt. eigenvalues --    2.14804   2.15786   2.16038   2.16042   2.17445
 Alpha virt. eigenvalues --    2.17446   2.18759   2.18763   2.19040   2.19042
 Alpha virt. eigenvalues --    2.21064   2.22972   2.22974   2.22990   2.22990
 Alpha virt. eigenvalues --    2.27673   2.27681   2.28619   2.29153   2.29157
 Alpha virt. eigenvalues --    2.29350   2.30506   2.30507   2.31270   2.31277
 Alpha virt. eigenvalues --    2.32751   2.32765   2.32765   2.33261   2.33265
 Alpha virt. eigenvalues --    2.34720   2.34722   2.38943   2.40261   2.40269
 Alpha virt. eigenvalues --    2.40847   2.41776   2.41778   2.42118   2.42123
 Alpha virt. eigenvalues --    2.44371   2.44372   2.46908   2.46913   2.50529
 Alpha virt. eigenvalues --    2.50530   2.50931   2.54212   2.57013   2.57013
 Alpha virt. eigenvalues --    2.59477   2.59479   2.60141   2.60144   2.61978
 Alpha virt. eigenvalues --    2.62750   2.64346   2.64346   2.64652   2.65160
 Alpha virt. eigenvalues --    2.65161   2.65260   2.65263   2.67255   2.67262
 Alpha virt. eigenvalues --    2.67830   2.67833   2.71959   2.71961   2.73363
 Alpha virt. eigenvalues --    2.73367   2.74444   2.75840   2.75846   2.79077
 Alpha virt. eigenvalues --    2.79081   2.79800   2.79806   2.80010   2.80014
 Alpha virt. eigenvalues --    2.80144   2.82359   2.83817   2.83828   2.87141
 Alpha virt. eigenvalues --    2.91926   2.91929   2.95058   2.95060   2.96865
 Alpha virt. eigenvalues --    2.97092   2.97099   2.97421   2.97421   3.01078
 Alpha virt. eigenvalues --    3.01079   3.01899   3.01900   3.05102   3.05376
 Alpha virt. eigenvalues --    3.05377   3.08299   3.08301   3.08896   3.08896
 Alpha virt. eigenvalues --    3.09260   3.10950   3.10970   3.10973   3.11085
 Alpha virt. eigenvalues --    3.11087   3.11457   3.11461   3.13677   3.14435
 Alpha virt. eigenvalues --    3.15295   3.15296   3.15617   3.16843   3.16849
 Alpha virt. eigenvalues --    3.19227   3.19229   3.21538   3.21538   3.23639
 Alpha virt. eigenvalues --    3.23650   3.25917   3.25918   3.28436   3.28718
 Alpha virt. eigenvalues --    3.28721   3.28820   3.28822   3.28945   3.28946
 Alpha virt. eigenvalues --    3.30020   3.30081   3.31719   3.31720   3.32199
 Alpha virt. eigenvalues --    3.32203   3.36924   3.36927   3.38872   3.38872
 Alpha virt. eigenvalues --    3.39447   3.40748   3.42564   3.42564   3.43108
 Alpha virt. eigenvalues --    3.43110   3.49095   3.49099   3.52348   3.52455
 Alpha virt. eigenvalues --    3.53340   3.53341   3.53445   3.53447   3.56114
 Alpha virt. eigenvalues --    3.56116   3.57572   3.57576   3.60761   3.65699
 Alpha virt. eigenvalues --    3.73540   3.79766   3.79769   3.84500   3.84514
 Alpha virt. eigenvalues --    3.86437   3.86443   3.87610   3.87612   3.89725
 Alpha virt. eigenvalues --    4.02236   4.07484   4.07492   4.12427   4.12431
 Alpha virt. eigenvalues --    4.18963   4.18968   4.34302   4.34321   4.45127
 Alpha virt. eigenvalues --    4.58245   4.58250   4.59291   4.59308   4.61874
 Alpha virt. eigenvalues --    4.65691   4.65696   4.77481   4.77489   4.83900
 Alpha virt. eigenvalues --   23.10108  23.23522  23.23525  23.46403  23.46407
 Alpha virt. eigenvalues --   23.57102  23.59617  23.59621  23.60451  23.60451
 Alpha virt. eigenvalues --   23.81309  23.81422  23.81424  23.81704  23.81711
 Alpha virt. eigenvalues --   23.84038  23.84038  23.93343  23.93352  23.97326
 Alpha virt. eigenvalues --   23.97719  23.97721  23.98088  23.98090  23.98555
 Alpha virt. eigenvalues --   23.99210  23.99212  24.01466  24.01468  24.03815
 Alpha virt. eigenvalues --   24.10535  24.10539  24.10638  24.10642  24.12594
 Alpha virt. eigenvalues --   24.12596  24.12884  24.12887  24.15209  24.15653
          Condensed to atoms (all electrons):
 Mulliken charges:
               1
     1  C    0.027707
     2  C    0.027778
     3  C   -0.223207
     4  C   -0.223141
     5  C   -0.223143
     6  C   -0.223155
     7  C    0.027712
     8  C    0.027729
     9  C    0.027692
    10  C    0.027689
    11  C   -0.223127
    12  C   -0.223124
    13  C   -0.223241
    14  C   -0.223104
    15  C    0.027666
    16  C    0.027750
    17  C    0.027658
    18  C    0.027796
    19  C   -0.223205
    20  C   -0.223194
    21  C   -0.223208
    22  C   -0.223140
    23  C    0.027706
    24  C    0.027780
    25  C    0.027713
    26  C    0.027729
    27  C   -0.223143
    28  C   -0.223155
    29  C   -0.223126
    30  C   -0.223124
    31  C    0.027694
    32  C    0.027687
    33  C    0.027667
    34  C    0.027749
    35  C   -0.223240
    36  C   -0.223105
    37  C   -0.223204
    38  C   -0.223195
    39  C    0.027660
    40  C    0.027794
    41  H    0.195462
    42  H    0.195449
    43  H    0.195444
    44  H    0.195436
    45  H    0.195430
    46  H    0.195427
    47  H    0.195446
    48  H    0.195448
    49  H    0.195460
    50  H    0.195462
    51  H    0.195462
    52  H    0.195449
    53  H    0.195444
    54  H    0.195436
    55  H    0.195430
    56  H    0.195427
    57  H    0.195446
    58  H    0.195448
    59  H    0.195460
    60  H    0.195462
 Sum of Mulliken charges =  -0.00000
 Mulliken charges with hydrogens summed into heavy atoms:
               1
     1  C    0.027707
     2  C    0.027778
     3  C   -0.027745
     4  C   -0.027692
     5  C   -0.027699
     6  C   -0.027719
     7  C    0.027712
     8  C    0.027729
     9  C    0.027692
    10  C    0.027689
    11  C   -0.027697
    12  C   -0.027697
    13  C   -0.027795
    14  C   -0.027656
    15  C    0.027666
    16  C    0.027750
    17  C    0.027658
    18  C    0.027796
    19  C   -0.027744
    20  C   -0.027732
    21  C   -0.027746
    22  C   -0.027692
    23  C    0.027706
    24  C    0.027780
    25  C    0.027713
    26  C    0.027729
    27  C   -0.027698
    28  C   -0.027719
    29  C   -0.027697
    30  C   -0.027698
    31  C    0.027694
    32  C    0.027687
    33  C    0.027667
    34  C    0.027749
    35  C   -0.027795
    36  C   -0.027656
    37  C   -0.027744
    38  C   -0.027733
    39  C    0.027660
    40  C    0.027794
 Electronic spatial extent (au):  <R**2>=          17194.8622
 Charge=             -0.0000 electrons
 Dipole moment (field-independent basis, Debye):
    X=             -0.0000    Y=             -0.0000    Z=             -0.0000  Tot=              0.0000
 Quadrupole moment (field-independent basis, Debye-Ang):
   XX=           -239.2650   YY=           -239.2739   ZZ=           -193.4182
   XY=              0.0002   XZ=             -0.0005   YZ=             -0.0018
 Traceless Quadrupole moment (field-independent basis, Debye-Ang):
   XX=            -15.2793   YY=            -15.2882   ZZ=             30.5675
   XY=              0.0002   XZ=             -0.0005   YZ=             -0.0018
 Octapole moment (field-independent basis, Debye-Ang**2):
  XXX=             -0.0001  YYY=             -0.0001  ZZZ=          -1070.3574  XYY=             -0.0000
  XXY=             -0.0000  XXZ=           -441.3563  XZZ=             -0.0017  YZZ=             -0.0065
  YYZ=           -441.3728  XYZ=              0.0004
 Hexadecapole moment (field-independent basis, Debye-Ang**3):
 XXXX=          -9175.3246 YYYY=          -9167.9481 ZZZZ=          -6811.5579 XXXY=             -0.1976
 XXXZ=              0.0111 YYYX=             -0.1986 YYYZ=              0.0402 ZZZX=              0.0188
 ZZZY=              0.0347 XXYY=          -3057.2029 XXZZ=          -2557.9034 YYZZ=          -2557.0423
 XXYZ=              0.0036 YYXZ=              0.0170 ZZXY=             -0.0518
 N-N= 4.230862447109D+03 E-N=-1.202693594444D+04  KE= 1.529809969950D+03
 There are a total of     1363680 grid points.
 ElSum from          density=      259.9999423114
 ElSum from atomic densities=      259.9996590732
 Hirshfeld populations at iteration   1 (CA, CB, DipXYZ):
               1          2          3          4          5
     1  C    3.001314   3.001314   0.018101  -0.012539  -0.016122
     2  C    3.001310   3.001310   0.002774   0.021837  -0.016127
     3  C    3.020916   3.020916  -0.025729   0.057954   0.021927
     4  C    3.020912   3.020912   0.025829  -0.057902   0.021933
     5  C    3.020921   3.020921  -0.054893   0.031790  -0.021946
     6  C    3.020919   3.020919   0.054990  -0.031613  -0.021944
     7  C    3.001319   3.001319   0.021983   0.000528   0.016107
     8  C    3.001312   3.001312  -0.010557   0.019277   0.016121
     9  C    3.001312   3.001312   0.017510   0.013288  -0.016117
    10  C    3.001317   3.001317  -0.019904   0.009394  -0.016111
    11  C    3.020915   3.020915  -0.063047  -0.006603   0.021947
    12  C    3.020917   3.020917   0.063035   0.006680   0.021940
    13  C    3.020921   3.020921  -0.047213  -0.042338  -0.021937
    14  C    3.020916   3.020916   0.047126   0.042454  -0.021942
    15  C    3.001319   3.001319   0.006305   0.021110   0.016133
    16  C    3.001312   3.001312  -0.021595  -0.004080   0.016107
    17  C    3.001311   3.001311  -0.007258   0.020754  -0.016127
    18  C    3.001317   3.001317  -0.015147  -0.016001  -0.016128
    19  C    3.020916   3.020916  -0.013264  -0.062030   0.021942
    20  C    3.020921   3.020921   0.013090   0.062067   0.021941
    21  C    3.020916   3.020916   0.025729  -0.057954  -0.021927
    22  C    3.020912   3.020912  -0.025830   0.057902  -0.021933
    23  C    3.001314   3.001314  -0.018101   0.012539   0.016122
    24  C    3.001310   3.001310  -0.002774  -0.021837   0.016127
    25  C    3.001319   3.001319  -0.021983  -0.000529  -0.016107
    26  C    3.001312   3.001312   0.010557  -0.019277  -0.016121
    27  C    3.020921   3.020921   0.054893  -0.031790   0.021946
    28  C    3.020919   3.020919  -0.054990   0.031613   0.021944
    29  C    3.020915   3.020915   0.063047   0.006603  -0.021947
    30  C    3.020917   3.020917  -0.063035  -0.006680  -0.021939
    31  C    3.001312   3.001312  -0.017510  -0.013288   0.016117
    32  C    3.001317   3.001317   0.019904  -0.009394   0.016111
    33  C    3.001319   3.001319  -0.006305  -0.021110  -0.016133
    34  C    3.001312   3.001312   0.021595   0.004080  -0.016107
    35  C    3.020921   3.020921   0.047213   0.042338   0.021937
    36  C    3.020916   3.020916  -0.047126  -0.042454   0.021942
    37  C    3.020916   3.020916   0.013264   0.062030  -0.021942
    38  C    3.020921   3.020921  -0.013090  -0.062067  -0.021941
    39  C    3.001311   3.001311   0.007259  -0.020754   0.016127
    40  C    3.001317   3.001317   0.015147   0.016001   0.016128
    41  H    0.477765   0.477765  -0.014908   0.063571   0.132289
    42  H    0.477766   0.477766   0.037266  -0.053599   0.132293
    43  H    0.477768   0.477768  -0.049431   0.042642  -0.132291
    44  H    0.477767   0.477767   0.061652  -0.021452  -0.132296
    45  H    0.477769   0.477769  -0.065034   0.005439   0.132292
    46  H    0.477770   0.477770   0.062484   0.018838   0.132292
    47  H    0.477767   0.477767  -0.055867  -0.033789  -0.132293
    48  H    0.477767   0.477767   0.039480   0.051982  -0.132293
    49  H    0.477765   0.477765  -0.025328  -0.060180   0.132293
    50  H    0.477765   0.477765   0.001364   0.065280   0.132294
    51  H    0.477765   0.477765   0.014908  -0.063571  -0.132289
    52  H    0.477766   0.477766  -0.037266   0.053599  -0.132293
    53  H    0.477768   0.477768   0.049431  -0.042642   0.132291
    54  H    0.477767   0.477767  -0.061652   0.021452   0.132296
    55  H    0.477769   0.477769   0.065034  -0.005439  -0.132292
    56  H    0.477770   0.477770  -0.062484  -0.018838  -0.132292
    57  H    0.477767   0.477767   0.055867   0.033789   0.132293
    58  H    0.477767   0.477767  -0.039480  -0.051982   0.132292
    59  H    0.477765   0.477765   0.025328   0.060180  -0.132293
    60  H    0.477765   0.477765  -0.001364  -0.065280  -0.132294
       Tot 129.999971 129.999971  -0.000000  -0.000000  -0.000000

 Dip from Atomic Chgs             -0.000000  -0.000000   0.000201
         Total Dipole             -0.000000  -0.000000   0.000201

 Hirshfeld charges, spin densities, dipoles, and CM5 charges using IRadAn=      5:
              Q-H        S-H        Dx         Dy         Dz        Q-CM5   
     1  C   -0.002628   0.000000   0.018101  -0.012539  -0.016122  -0.006818
     2  C   -0.002620   0.000000   0.002774   0.021837  -0.016127  -0.006811
     3  C   -0.041831   0.000000  -0.025729   0.057954   0.021927  -0.094754
     4  C   -0.041825   0.000000   0.025829  -0.057902   0.021933  -0.094746
     5  C   -0.041842   0.000000  -0.054893   0.031790  -0.021946  -0.094764
     6  C   -0.041837   0.000000   0.054990  -0.031613  -0.021944  -0.094758
     7  C   -0.002637   0.000000   0.021983   0.000528   0.016107  -0.006828
     8  C   -0.002625   0.000000  -0.010557   0.019277   0.016121  -0.006816
     9  C   -0.002624   0.000000   0.017510   0.013288  -0.016117  -0.006815
    10  C   -0.002634   0.000000  -0.019904   0.009394  -0.016111  -0.006825
    11  C   -0.041829   0.000000  -0.063047  -0.006603   0.021947  -0.094751
    12  C   -0.041833   0.000000   0.063035   0.006680   0.021940  -0.094755
    13  C   -0.041842   0.000000  -0.047213  -0.042338  -0.021937  -0.094763
    14  C   -0.041832   0.000000   0.047126   0.042454  -0.021942  -0.094754
    15  C   -0.002637   0.000000   0.006305   0.021110   0.016133  -0.006828
    16  C   -0.002625   0.000000  -0.021595  -0.004080   0.016107  -0.006816
    17  C   -0.002623   0.000000  -0.007258   0.020754  -0.016127  -0.006814
    18  C   -0.002635   0.000000  -0.015147  -0.016001  -0.016128  -0.006826
    19  C   -0.041831   0.000000  -0.013264  -0.062030   0.021942  -0.094752
    20  C   -0.041842   0.000000   0.013090   0.062067   0.021941  -0.094764
    21  C   -0.041831   0.000000   0.025729  -0.057954  -0.021927  -0.094754
    22  C   -0.041825   0.000000  -0.025830   0.057902  -0.021933  -0.094746
    23  C   -0.002628   0.000000  -0.018101   0.012539   0.016122  -0.006818
    24  C   -0.002620   0.000000  -0.002774  -0.021837   0.016127  -0.006811
    25  C   -0.002637   0.000000  -0.021983  -0.000529  -0.016107  -0.006828
    26  C   -0.002625   0.000000   0.010557  -0.019277  -0.016121  -0.006816
    27  C   -0.041842   0.000000   0.054893  -0.031790   0.021946  -0.094764
    28  C   -0.041837   0.000000  -0.054990   0.031613   0.021944  -0.094758
    29  C   -0.041829   0.000000   0.063047   0.006603  -0.021947  -0.094751
    30  C   -0.041833   0.000000  -0.063035  -0.006680  -0.021939  -0.094755
    31  C   -0.002624   0.000000  -0.017510  -0.013288   0.016117  -0.006815
    32  C   -0.002634   0.000000   0.019904  -0.009394   0.016111  -0.006825
    33  C   -0.002637   0.000000  -0.006305  -0.021110  -0.016133  -0.006828
    34  C   -0.002625   0.000000   0.021595   0.004080  -0.016107  -0.006816
    35  C   -0.041842   0.000000   0.047213   0.042338   0.021937  -0.094763
    36  C   -0.041832   0.000000  -0.047126  -0.042454   0.021942  -0.094754
    37  C   -0.041831   0.000000   0.013264   0.062030  -0.021942  -0.094752
    38  C   -0.041842   0.000000  -0.013090  -0.062067  -0.021941  -0.094764
    39  C   -0.002623   0.000000   0.007259  -0.020754   0.016127  -0.006814
    40  C   -0.002635   0.000000   0.015147   0.016001   0.016128  -0.006826
    41  H    0.044470   0.000000  -0.014908   0.063571   0.132289   0.101582
    42  H    0.044468   0.000000   0.037266  -0.053599   0.132293   0.101580
    43  H    0.044465   0.000000  -0.049431   0.042642  -0.132291   0.101578
    44  H    0.044465   0.000000   0.061652  -0.021452  -0.132296   0.101577
    45  H    0.044462   0.000000  -0.065034   0.005439   0.132292   0.101576
    46  H    0.044460   0.000000   0.062484   0.018838   0.132292   0.101575
    47  H    0.044465   0.000000  -0.055867  -0.033789  -0.132293   0.101576
    48  H    0.044466   0.000000   0.039480   0.051982  -0.132293   0.101579
    49  H    0.044471   0.000000  -0.025328  -0.060180   0.132293   0.101581
    50  H    0.044470   0.000000   0.001364   0.065280   0.132294   0.101582
    51  H    0.044470   0.000000   0.014908  -0.063571  -0.132289   0.101582
    52  H    0.044468   0.000000  -0.037266   0.053599  -0.132293   0.101580
    53  H    0.044465   0.000000   0.049431  -0.042642   0.132291   0.101578
    54  H    0.044465   0.000000  -0.061652   0.021452   0.132296   0.101577
    55  H    0.044462   0.000000   0.065034  -0.005439  -0.132292   0.101576
    56  H    0.044460   0.000000  -0.062484  -0.018838  -0.132292   0.101575
    57  H    0.044465   0.000000   0.055867   0.033789   0.132293   0.101576
    58  H    0.044466   0.000000  -0.039480  -0.051982   0.132292   0.101579
    59  H    0.044471   0.000000   0.025328   0.060180  -0.132293   0.101581
    60  H    0.044470   0.000000  -0.001364  -0.065280  -0.132294   0.101582
       Tot   0.000058   0.000000  -0.000000  -0.000000  -0.000000   0.000058
 Hirshfeld charges with hydrogens summed into heavy atoms:
              Q-H       Q-CM5   
     1  C   -0.002628  -0.006818
     2  C   -0.002620  -0.006811
     3  C    0.002638   0.006828
     4  C    0.002643   0.006834
     5  C    0.002623   0.006814
     6  C    0.002628   0.006819
     7  C   -0.002637  -0.006828
     8  C   -0.002625  -0.006816
     9  C   -0.002624  -0.006815
    10  C   -0.002634  -0.006825
    11  C    0.002632   0.006825
    12  C    0.002627   0.006820
    13  C    0.002623   0.006813
    14  C    0.002634   0.006825
    15  C   -0.002637  -0.006828
    16  C   -0.002625  -0.006816
    17  C   -0.002623  -0.006814
    18  C   -0.002635  -0.006826
    19  C    0.002639   0.006829
    20  C    0.002629   0.006818
    21  C    0.002638   0.006828
    22  C    0.002643   0.006834
    23  C   -0.002628  -0.006818
    24  C   -0.002620  -0.006811
    25  C   -0.002637  -0.006828
    26  C   -0.002625  -0.006816
    27  C    0.002623   0.006814
    28  C    0.002628   0.006819
    29  C    0.002632   0.006825
    30  C    0.002627   0.006820
    31  C   -0.002624  -0.006815
    32  C   -0.002634  -0.006825
    33  C   -0.002637  -0.006828
    34  C   -0.002625  -0.006816
    35  C    0.002623   0.006813
    36  C    0.002634   0.006825
    37  C    0.002639   0.006829
    38  C    0.002629   0.006818
    39  C   -0.002623  -0.006814
    40  C   -0.002635  -0.006826
 
 EQQ=  0.00000000000     EQD=  0.00000000000     EDD= 0.205833281567E-01
 EQQ+QD+DD= 0.205833281567E-01
 
 1\1\GINC-CU22\SP\RB3LYP\6-311G(d)\C40H20\WANG\08-Jul-2025\0\\# B3LYP/6
 -311G* Pop=Hirshfeld NOSYMM\\From ../../cnt_5_5-2_opt.out\\0,1\C,0,2.8
 01128,2.041478,1.234011\C,0,3.392061,0.715177,1.234087\C,0,2.866658,2.
 023774,3.666001\C,0,3.422445,0.775802,3.666064\C,0,1.129182,3.321178,0
 .023141\C,0,2.312513,2.638444,0.0231\C,0,1.065808,3.297118,2.455114\C,
 0,2.323578,2.571607,2.455056\C,0,-1.07618,3.293467,1.234087\C,0,0.3678
 38,3.445299,1.234078\C,0,-1.038924,3.349895,3.666111\C,0,0.31973,3.492
 735,3.666089\C,0,-2.810792,2.100141,0.023157\C,0,-1.795117,3.013801,0.
 023165\C,0,-2.807656,2.032459,2.455123\C,0,-1.72806,3.003435,2.455151\
 C,0,-3.466648,-0.005612,1.234111\C,0,-3.164637,1.414656,1.234086\C,0,-
 3.509238,0.047395,3.666056\C,0,-3.225054,1.38366,3.666021\C,0,-2.86665
 7,-2.023774,0.023267\C,0,-3.422445,-0.775802,0.023204\C,0,-2.801128,-2
 .041478,2.455257\C,0,-3.392061,-0.715177,2.455181\C,0,-1.065808,-3.297
 118,1.234154\C,0,-2.323578,-2.571607,1.234212\C,0,-1.129182,-3.321178,
 3.666127\C,0,-2.312513,-2.638444,3.666168\C,0,1.038925,-3.349895,0.023
 157\C,0,-0.319729,-3.492735,0.023179\C,0,1.07618,-3.293467,2.455181\C,
 0,-0.367838,-3.445298,2.45519\C,0,2.807656,-2.032459,1.234145\C,0,1.72
 806,-3.003435,1.234117\C,0,2.810792,-2.100141,3.666111\C,0,1.795117,-3
 .0138,3.666103\C,0,3.509239,-0.047395,0.023212\C,0,3.225054,-1.38366,0
 .023247\C,0,3.466649,0.005612,2.455157\C,0,3.164637,-1.414656,2.455182
 \H,0,2.715255,2.536955,4.610302\H,0,3.702538,0.32003,4.610422\H,0,0.70
 5006,3.647196,-0.921194\H,0,2.806998,2.434397,-0.921273\H,0,-1.57365,3
 .364269,4.610484\H,0,0.839803,3.617926,4.610457\H,0,-3.25216,1.797823,
 -0.921191\H,0,-1.448017,3.420874,-0.921184\H,0,-3.688626,-0.456627,4.6
 10395\H,0,-3.183715,1.917072,4.610347\H,0,-2.715255,-2.536955,-0.92103
 4\H,0,-3.702538,-0.32003,-0.921154\H,0,-0.705006,-3.647196,4.610462\H,
 0,-2.806998,-2.434397,4.610541\H,0,1.57365,-3.364269,-0.921216\H,0,-0.
 839803,-3.617926,-0.921189\H,0,3.25216,-1.797823,4.610459\H,0,1.448017
 ,-3.420874,4.610452\H,0,3.688626,0.456627,-0.921127\H,0,3.183716,-1.91
 7072,-0.921079\\Version=ES64L-G16RevB.01\HF=-1536.516956\RMSD=6.567e-0
 9\Dipole=-0.0000003,-0.0000002,0.\Quadrupole=-11.3597621,-11.3664117,2
 2.7261739,0.0001435,-0.0003368,-0.0013168\PG=CI [X(C40H20)]\\@


 OLD HORSE! OLD HORSE! WHAT BROUGHT YOU HERE?
 FROM SACARAP' TO PORTLAND PIER
 I'VE CARTED STONE THIS MANY A YEAR;
 TILL, KILLED BY BLOWS AND SORE ABUSE,
 THEY SALTED ME DOWN FOR SAILORS' USE.
 THE SAILORS THEY DO ME DESPISE;
 THEY TURN ME OVER AND DAMN MY EYES;
 CUT OFF MY MEAT, AND SCRAPE MY BONES,
 AND PITCH ME OVER TO DAVY JONES.

    SAILORS' COMPLAINT ABOUT THE BEEF
    SERVED ON SHIPBOARD, CIRCA 1835.
 Job cpu time:       0 days  0 hours 32 minutes 35.1 seconds.
 Elapsed time:       0 days  0 hours  1 minutes 49.6 seconds.
 File lengths (MBytes):  RWF=    332 Int=      0 D2E=      0 Chk=     36 Scr=      1
 Normal termination of Gaussian 16 at Tue Jul  8 03:00:07 2025.
