 Entering Gaussian System, Link 0=g16
 Initial command:
 /opt/software/g16/l1.exe "/tmp/cnt_8_8-13_sgp-7756.tmp/Gau-31712.inp" -scrdir="/tmp/cnt_8_8-13_sgp-7756.tmp/"
 Entering Link 1 = /opt/software/g16/l1.exe PID=     31713.
  
 Copyright (c) 1988-2017, Gaussian, Inc.  All Rights Reserved.
  
 This is part of the Gaussian(R) 16 program.  It is based on
 the Gaussian(R) 09 system (copyright 2009, Gaussian, Inc.),
 the Gaussian(R) 03 system (copyright 2003, Gaussian, Inc.),
 the Gaussian(R) 98 system (copyright 1998, Gaussian, Inc.),
 the Gaussian(R) 94 system (copyright 1995, Gaussian, Inc.),
 the Gaussian 92(TM) system (copyright 1992, Gaussian, Inc.),
 the Gaussian 90(TM) system (copyright 1990, Gaussian, Inc.),
 the Gaussian 88(TM) system (copyright 1988, Gaussian, Inc.),
 the Gaussian 86(TM) system (copyright 1986, Carnegie Mellon
 University), and the Gaussian 82(TM) system (copyright 1983,
 Carnegie Mellon University). Gaussian is a federally registered
 trademark of Gaussian, Inc.
  
 This software contains proprietary and confidential information,
 including trade secrets, belonging to Gaussian, Inc.
  
 This software is provided under written license and may be
 used, copied, transmitted, or stored only in accord with that
 written license.
  
 The following legend is applicable only to US Government
 contracts under FAR:
  
                    RESTRICTED RIGHTS LEGEND
  
 Use, reproduction and disclosure by the US Government is
 subject to restrictions as set forth in subparagraphs (a)
 and (c) of the Commercial Computer Software - Restricted
 Rights clause in FAR 52.227-19.
  
 Gaussian, Inc.
 340 Quinnipiac St., Bldg. 40, Wallingford CT 06492
  
  
 ---------------------------------------------------------------
 Warning -- This program may not be used in any manner that
 competes with the business of Gaussian, Inc. or will provide
 assistance to any competitor of Gaussian, Inc.  The licensee
 of this program is prohibited from giving any competitor of
 Gaussian, Inc. access to this program.  By using this program,
 the user acknowledges that Gaussian, Inc. is engaged in the
 business of creating and licensing software in the field of
 computational chemistry and represents and warrants to the
 licensee that it is not a competitor of Gaussian, Inc. and that
 it will not use this program in any manner prohibited above.
 ---------------------------------------------------------------
  

 Cite this work as:
 Gaussian 16, Revision B.01,
 M. J. Frisch, G. W. Trucks, H. B. Schlegel, G. E. Scuseria, 
 M. A. Robb, J. R. Cheeseman, G. Scalmani, V. Barone, 
 G. A. Petersson, H. Nakatsuji, X. Li, M. Caricato, A. V. Marenich, 
 J. Bloino, B. G. Janesko, R. Gomperts, B. Mennucci, H. P. Hratchian, 
 J. V. Ortiz, A. F. Izmaylov, J. L. Sonnenberg, D. Williams-Young, 
 F. Ding, F. Lipparini, F. Egidi, J. Goings, B. Peng, A. Petrone, 
 T. Henderson, D. Ranasinghe, V. G. Zakrzewski, J. Gao, N. Rega, 
 G. Zheng, W. Liang, M. Hada, M. Ehara, K. Toyota, R. Fukuda, 
 J. Hasegawa, M. Ishida, T. Nakajima, Y. Honda, O. Kitao, H. Nakai, 
 T. Vreven, K. Throssell, J. A. Montgomery, Jr., J. E. Peralta, 
 F. Ogliaro, M. J. Bearpark, J. J. Heyd, E. N. Brothers, K. N. Kudin, 
 V. N. Staroverov, T. A. Keith, R. Kobayashi, J. Normand, 
 K. Raghavachari, A. P. Rendell, J. C. Burant, S. S. Iyengar, 
 J. Tomasi, M. Cossi, J. M. Millam, M. Klene, C. Adamo, R. Cammi, 
 J. W. Ochterski, R. L. Martin, K. Morokuma, O. Farkas, 
 J. B. Foresman, and D. J. Fox, Gaussian, Inc., Wallingford CT, 2016.
 
 ******************************************
 Gaussian 16:  ES64L-G16RevB.01 20-Dec-2017
                 8-Jul-2025 
 ******************************************
 %nproc=28
 Will use up to   28 processors via shared memory.
 ------------------------------------
 # B3LYP/6-311G* Pop=Hirshfeld NOSYMM
 ------------------------------------
 1/38=1,172=1/1;
 2/12=2,15=1,17=6,18=5,40=1/2;
 3/5=4,6=6,7=1,11=2,25=1,30=1,74=-5/1,2,3;
 4//1;
 5/5=2,38=5/2;
 6/7=2,8=2,9=2,10=2,28=1,79=1/1;
 99/5=1,9=1/99;
 -----------------------------
 From ../../cnt_8_8-13_opt.out
 -----------------------------
 Symbolic Z-matrix:
 Charge =  0 Multiplicity = 1
 6                     5.10517   2.11699   1.1852 
 6                     5.47944   0.71921   1.18517 
 6                     5.029     2.07965   3.65327 
 6                     5.3948    0.71347   3.65326 
 6                     5.04441   2.09061   6.11857 
 6                     5.41357   0.71174   6.11857 
 6                     5.04847   2.09085   8.5894 
 6                     5.41718   0.71359   8.5894 
 6                     5.04692   2.0888    11.05362 
 6                     5.41481   0.71461   11.05362 
 6                     5.04876   2.09233   13.52139 
 6                     5.41817   0.71249   13.52139 
 6                     5.04695   2.08929   15.98999 
 6                     5.41507   0.71422   15.98999 
 6                     5.04736   2.0899    18.45425 
 6                     5.41573   0.71389   18.45425 
 6                     5.04941   2.09259   20.92373 
 6                     5.41886   0.71258   20.92373 
 6                     5.04569   2.08749   23.39024 
 6                     5.4131    0.71511   23.39024 
 6                     5.03757   2.08777   25.85484 
 6                     5.40624   0.71077   25.85484 
 6                     5.04436   2.09343   28.33265 
 6                     5.41499   0.70923   28.33266 
 6                     5.2041    2.10555   30.75326 
 6                     5.55941   0.77857   30.75326 
 6                     4.00214   3.93662  -0.00934 
 6                     4.8386    2.84692  -0.00933 
 6                     3.85912   3.8642    2.41126 
 6                     4.73166   2.72752   2.41126 
 6                     3.855     3.85635   4.88906 
 6                     4.72302   2.7256    4.88906 
 6                     3.86261   3.85917   7.35366 
 6                     4.72772   2.73224   7.35366 
 6                     3.8641    3.86532   9.82017 
 6                     4.73403   2.73212   9.82017 
 6                     3.86324   3.86204   12.28965 
 6                     4.73064   2.73214   12.28965 
 6                     3.86309   3.86132   14.75391 
 6                     4.7299    2.73219   14.75391 
 6                     3.8636    3.86483   17.22251 
 6                     4.73342   2.73178   17.22251 
 6                     3.86325   3.86086   19.69028 
 6                     4.7295    2.73245   19.69028 
 6                     3.86389   3.86336   22.1545 
 6                     4.73208   2.73242   22.1545 
 6                     3.86024   3.8616    24.62533 
 6                     4.72944   2.72932   24.62533 
 6                     3.8502    3.8456    27.09063 
 6                     4.71137   2.72372   27.09064 
 6                     3.90628   3.90926   29.55871 
 6                     4.78735   2.76141   29.55871 
 6                     2.11272   5.10617   1.18518 
 6                     3.36598   4.38286   1.18519 
 6                     2.08521   5.02586   3.65326 
 6                     3.31014   4.31889   3.65326 
 6                     2.08834   5.04442   6.11857 
 6                     3.32466   4.33092   6.11857 
 6                     2.09103   5.04743   8.5894 
 6                     3.32591   4.33479   8.5894 
 6                     2.09139   5.04488   11.05362 
 6                     3.32352   4.33384   11.05362 
 6                     2.0902    5.04867   13.52139 
 6                     3.32739   4.3347    13.52139 
 6                     2.09107   5.04524   15.98999 
 6                     3.32398   4.33374   15.98999 
 6                     2.09093   5.04596   18.45425 
 6                     3.32468   4.33398   18.45425 
 6                     2.09048   5.04931   20.92373 
 6                     3.32782   4.33526   20.92373 
 6                     2.09145   5.0431    23.39023 
 6                     3.32195   4.33298   23.39024 
 6                     2.08552   5.0376    25.85484 
 6                     3.32016   4.32507   25.85484 
 6                     2.08637   5.04651   28.33265 
 6                     3.32747   4.33023   28.33265 
 6                     2.19081   5.16816   30.75326 
 6                     3.38061   4.4815    30.75325 
 6                     0.04621   5.61332  -0.00938 
 6                     1.40815   5.43379  -0.00938 
 6                    -0.00374   5.46106   2.41124 
 6                     1.41691   5.27375   2.41123 
 6                    -0.00112   5.45253   4.88906 
 6                     1.41212   5.26616   4.88906 
 6                     0.00225   5.45987   7.35367 
 6                     1.41073   5.27412   7.35367 
 6                    -0.00104   5.46525   9.82017 
 6                     1.41527   5.27846   9.82017 
 6                     0.00066   5.46232   12.28965 
 6                     1.41286   5.27608   12.28965 
 6                     0.00106   5.46171   14.75391 
 6                     1.41231   5.27559   14.75391 
 6                    -0.00106   5.46455   17.22251 
 6                     1.41509   5.27779   17.22251 
 6                     0.0015    5.4615    19.69028 
 6                     1.41184   5.2755    19.69028 
 6                     0.00019   5.46371   22.1545 
 6                     1.41369   5.2773    22.1545 
 6                    -0.00114   5.4599    24.62533 
 6                     1.41402   5.27327   24.62533 
 6                     0.00308   5.44152   27.09064 
 6                     1.40523   5.25663   27.09064 
 6                    -0.00224   5.52619   29.55872 
 6                     1.43235   5.33709   29.55873 
 6                    -2.11699   5.10517   1.1852 
 6                    -0.71921   5.47944   1.18517 
 6                    -2.07965   5.029     3.65327 
 6                    -0.71347   5.3948    3.65326 
 6                    -2.09061   5.04441   6.11857 
 6                    -0.71174   5.41357   6.11857 
 6                    -2.09085   5.04846   8.5894 
 6                    -0.71359   5.41718   8.5894 
 6                    -2.0888    5.04692   11.05362 
 6                    -0.71461   5.41481   11.05362 
 6                    -2.09233   5.04876   13.52139 
 6                    -0.71249   5.41817   13.52139 
 6                    -2.08929   5.04695   15.98999 
 6                    -0.71422   5.41507   15.98999 
 6                    -2.08989   5.04736   18.45425 
 6                    -0.71389   5.41573   18.45425 
 6                    -2.09259   5.04941   20.92373 
 6                    -0.71258   5.41886   20.92373 
 6                    -2.08749   5.04569   23.39024 
 6                    -0.71511   5.41309   23.39024 
 6                    -2.08777   5.03757   25.85484 
 6                    -0.71077   5.40624   25.85484 
 6                    -2.09343   5.04436   28.33265 
 6                    -0.70923   5.41499   28.33266 
 6                    -2.10555   5.2041    30.75326 
 6                    -0.77857   5.55941   30.75326 
 6                    -3.93661   4.00214  -0.00934 
 6                    -2.84691   4.8386   -0.00933 
 6                    -3.86419   3.85912   2.41126 
 6                    -2.72752   4.73166   2.41126 
 6                    -3.85635   3.855     4.88906 
 6                    -2.7256    4.72301   4.88906 
 6                    -3.85917   3.86261   7.35366 
 6                    -2.73224   4.72772   7.35366 
 6                    -3.86531   3.8641    9.82017 
 6                    -2.73212   4.73403   9.82017 
 6                    -3.86204   3.86324   12.28965 
 6                    -2.73214   4.73063   12.28965 
 6                    -3.86132   3.86309   14.75391 
 6                    -2.73219   4.7299    14.75391 
 6                    -3.86483   3.8636    17.22251 
 6                    -2.73178   4.73342   17.22251 
 6                    -3.86086   3.86325   19.69028 
 6                    -2.73245   4.7295    19.69029 
 6                    -3.86336   3.86389   22.1545 
 6                    -2.73241   4.73208   22.1545 
 6                    -3.8616    3.86024   24.62533 
 6                    -2.72932   4.72944   24.62533 
 6                    -3.8456    3.85019   27.09063 
 6                    -2.72372   4.71137   27.09064 
 6                    -3.90926   3.90628   29.55871 
 6                    -2.76141   4.78735   29.55871 
 6                    -5.10617   2.11272   1.18518 
 6                    -4.38286   3.36598   1.18519 
 6                    -5.02586   2.0852    3.65326 
 6                    -4.31889   3.31014   3.65326 
 6                    -5.04442   2.08834   6.11857 
 6                    -4.33092   3.32466   6.11857 
 6                    -5.04743   2.09103   8.5894 
 6                    -4.33478   3.32591   8.5894 
 6                    -5.04488   2.09139   11.05362 
 6                    -4.33384   3.32352   11.05362 
 6                    -5.04867   2.0902    13.52139 
 6                    -4.3347    3.32739   13.52139 
 6                    -5.04524   2.09107   15.98999 
 6                    -4.33374   3.32398   15.98999 
 6                    -5.04596   2.09093   18.45425 
 6                    -4.33398   3.32468   18.45425 
 6                    -5.04931   2.09048   20.92373 
 6                    -4.33526   3.32782   20.92373 
 6                    -5.04309   2.09145   23.39023 
 6                    -4.33298   3.32195   23.39024 
 6                    -5.0376    2.08552   25.85484 
 6                    -4.32507   3.32016   25.85484 
 6                    -5.0465    2.08637   28.33265 
 6                    -4.33023   3.32747   28.33265 
 6                    -5.16816   2.19081   30.75326 
 6                    -4.4815    3.38061   30.75325 
 6                    -5.61332   0.04621  -0.00938 
 6                    -5.43378   1.40815  -0.00938 
 6                    -5.46106  -0.00374   2.41124 
 6                    -5.27375   1.41691   2.41123 
 6                    -5.45253  -0.00112   4.88906 
 6                    -5.26616   1.41212   4.88906 
 6                    -5.45987   0.00225   7.35367 
 6                    -5.27412   1.41073   7.35367 
 6                    -5.46525  -0.00104   9.82017 
 6                    -5.27846   1.41527   9.82017 
 6                    -5.46232   0.00066   12.28965 
 6                    -5.27608   1.41286   12.28965 
 6                    -5.46171   0.00106   14.75391 
 6                    -5.27559   1.41231   14.75391 
 6                    -5.46455  -0.00106   17.22251 
 6                    -5.27779   1.41509   17.22251 
 6                    -5.4615    0.0015    19.69028 
 6                    -5.2755    1.41184   19.69028 
 6                    -5.46371   0.00019   22.1545 
 6                    -5.2773    1.41369   22.1545 
 6                    -5.4599   -0.00114   24.62533 
 6                    -5.27327   1.41402   24.62533 
 6                    -5.44152   0.00308   27.09064 
 6                    -5.25663   1.40523   27.09064 
 6                    -5.52619  -0.00224   29.55872 
 6                    -5.33708   1.43235   29.55873 
 6                    -5.10516  -2.11699   1.1852 
 6                    -5.47944  -0.71921   1.18517 
 6                    -5.029    -2.07965   3.65327 
 6                    -5.3948   -0.71347   3.65326 
 6                    -5.04441  -2.09061   6.11857 
 6                    -5.41357  -0.71174   6.11857 
 6                    -5.04846  -2.09085   8.5894 
 6                    -5.41718  -0.71359   8.5894 
 6                    -5.04692  -2.0888    11.05362 
 6                    -5.41481  -0.71461   11.05362 
 6                    -5.04876  -2.09233   13.52139 
 6                    -5.41817  -0.71249   13.52139 
 6                    -5.04695  -2.08929   15.98999 
 6                    -5.41507  -0.71422   15.98999 
 6                    -5.04736  -2.0899    18.45425 
 6                    -5.41573  -0.71389   18.45425 
 6                    -5.04941  -2.09259   20.92373 
 6                    -5.41886  -0.71258   20.92373 
 6                    -5.04569  -2.08749   23.39024 
 6                    -5.41309  -0.71511   23.39024 
 6                    -5.03757  -2.08777   25.85484 
 6                    -5.40623  -0.71077   25.85484 
 6                    -5.04436  -2.09343   28.33265 
 6                    -5.41499  -0.70923   28.33266 
 6                    -5.2041   -2.10555   30.75326 
 6                    -5.55941  -0.77857   30.75326 
 6                    -4.00214  -3.93661  -0.00934 
 6                    -4.8386   -2.84692  -0.00933 
 6                    -3.85912  -3.8642    2.41126 
 6                    -4.73166  -2.72752   2.41126 
 6                    -3.855    -3.85635   4.88906 
 6                    -4.72301  -2.7256    4.88906 
 6                    -3.86261  -3.85917   7.35366 
 6                    -4.72771  -2.73224   7.35366 
 6                    -3.8641   -3.86531   9.82017 
 6                    -4.73402  -2.73212   9.82017 
 6                    -3.86324  -3.86204   12.28965 
 6                    -4.73063  -2.73214   12.28965 
 6                    -3.86309  -3.86132   14.75391 
 6                    -4.7299   -2.73219   14.75391 
 6                    -3.8636   -3.86483   17.22251 
 6                    -4.73342  -2.73178   17.22251 
 6                    -3.86325  -3.86086   19.69028 
 6                    -4.7295   -2.73245   19.69028 
 6                    -3.86389  -3.86336   22.1545 
 6                    -4.73208  -2.73241   22.1545 
 6                    -3.86024  -3.8616    24.62533 
 6                    -4.72944  -2.72932   24.62533 
 6                    -3.85019  -3.8456    27.09063 
 6                    -4.71137  -2.72372   27.09064 
 6                    -3.90628  -3.90926   29.55871 
 6                    -4.78735  -2.76141   29.55871 
 6                    -2.11272  -5.10617   1.18518 
 6                    -3.36598  -4.38286   1.18519 
 6                    -2.0852   -5.02586   3.65326 
 6                    -3.31013  -4.31889   3.65326 
 6                    -2.08834  -5.04442   6.11857 
 6                    -3.32465  -4.33092   6.11857 
 6                    -2.09103  -5.04743   8.5894 
 6                    -3.32591  -4.33479   8.5894 
 6                    -2.09139  -5.04488   11.05362 
 6                    -3.32352  -4.33384   11.05362 
 6                    -2.0902   -5.04867   13.52139 
 6                    -3.32739  -4.3347    13.52139 
 6                    -2.09106  -5.04524   15.98999 
 6                    -3.32398  -4.33374   15.98999 
 6                    -2.09093  -5.04596   18.45425 
 6                    -3.32468  -4.33398   18.45425 
 6                    -2.09047  -5.04931   20.92373 
 6                    -3.32782  -4.33526   20.92373 
 6                    -2.09145  -5.0431    23.39023 
 6                    -3.32195  -4.33298   23.39024 
 6                    -2.08552  -5.0376    25.85484 
 6                    -3.32016  -4.32507   25.85484 
 6                    -2.08637  -5.04651   28.33265 
 6                    -3.32747  -4.33023   28.33265 
 6                    -2.19081  -5.16816   30.75326 
 6                    -3.38061  -4.4815    30.75325 
 6                    -0.04621  -5.61332  -0.00938 
 6                    -1.40815  -5.43378  -0.00938 
 6                     0.00374  -5.46106   2.41124 
 6                    -1.41691  -5.27375   2.41123 
 6                     0.00112  -5.45253   4.88906 
 6                    -1.41212  -5.26616   4.88906 
 6                    -0.00225  -5.45987   7.35367 
 6                    -1.41073  -5.27412   7.35367 
 6                     0.00104  -5.46525   9.82017 
 6                    -1.41527  -5.27846   9.82017 
 6                    -0.00066  -5.46232   12.28965 
 6                    -1.41286  -5.27608   12.28965 
 6                    -0.00106  -5.46171   14.75391 
 6                    -1.4123   -5.27559   14.75391 
 6                     0.00106  -5.46455   17.22251 
 6                    -1.41509  -5.27779   17.22251 
 6                    -0.0015   -5.4615    19.69028 
 6                    -1.41184  -5.2755    19.69028 
 6                    -0.00019  -5.46371   22.1545 
 6                    -1.41369  -5.2773    22.1545 
 6                     0.00114  -5.4599    24.62533 
 6                    -1.41402  -5.27327   24.62533 
 6                    -0.00308  -5.44152   27.09064 
 6                    -1.40523  -5.25663   27.09064 
 6                     0.00224  -5.52619   29.55872 
 6                    -1.43235  -5.33709   29.55873 
 6                     2.11699  -5.10517   1.1852 
 6                     0.71921  -5.47944   1.18517 
 6                     2.07966  -5.029     3.65327 
 6                     0.71347  -5.3948    3.65326 
 6                     2.09061  -5.04441   6.11857 
 6                     0.71174  -5.41357   6.11857 
 6                     2.09085  -5.04846   8.5894 
 6                     0.71359  -5.41718   8.5894 
 6                     2.0888   -5.04692   11.05362 
 6                     0.71462  -5.41481   11.05362 
 6                     2.09233  -5.04876   13.52139 
 6                     0.71249  -5.41817   13.52139 
 6                     2.08929  -5.04695   15.98999 
 6                     0.71422  -5.41507   15.98999 
 6                     2.0899   -5.04736   18.45425 
 6                     0.71389  -5.41573   18.45425 
 6                     2.09259  -5.04941   20.92373 
 6                     0.71258  -5.41886   20.92373 
 6                     2.08749  -5.04569   23.39024 
 6                     0.71511  -5.41309   23.39024 
 6                     2.08777  -5.03757   25.85484 
 6                     0.71077  -5.40624   25.85484 
 6                     2.09343  -5.04436   28.33265 
 6                     0.70923  -5.41499   28.33266 
 6                     2.10555  -5.2041    30.75326 
 6                     0.77857  -5.55941   30.75326 
 6                     3.93662  -4.00214  -0.00934 
 6                     2.84692  -4.8386   -0.00933 
 6                     3.8642   -3.85912   2.41126 
 6                     2.72752  -4.73166   2.41126 
 6                     3.85635  -3.855     4.88906 
 6                     2.7256   -4.72301   4.88906 
 6                     3.85918  -3.86261   7.35366 
 6                     2.73225  -4.72772   7.35366 
 6                     3.86532  -3.8641    9.82017 
 6                     2.73212  -4.73403   9.82017 
 6                     3.86204  -3.86324   12.28965 
 6                     2.73214  -4.73063   12.28965 
 6                     3.86132  -3.86309   14.75391 
 6                     2.73219  -4.7299    14.75391 
 6                     3.86483  -3.8636    17.22251 
 6                     2.73178  -4.73342   17.22251 
 6                     3.86087  -3.86325   19.69028 
 6                     2.73245  -4.7295    19.69028 
 6                     3.86336  -3.86389   22.1545 
 6                     2.73242  -4.73208   22.1545 
 6                     3.8616   -3.86024   24.62533 
 6                     2.72932  -4.72944   24.62533 
 6                     3.8456   -3.85019   27.09063 
 6                     2.72372  -4.71137   27.09064 
 6                     3.90926  -3.90628   29.55871 
 6                     2.76141  -4.78735   29.55871 
 6                     5.10617  -2.11272   1.18518 
 6                     4.38286  -3.36598   1.18519 
 6                     5.02586  -2.0852    3.65326 
 6                     4.31889  -3.31014   3.65326 
 6                     5.04442  -2.08834   6.11857 
 6                     4.33093  -3.32465   6.11857 
 6                     5.04743  -2.09103   8.5894 
 6                     4.33479  -3.32591   8.5894 
 6                     5.04488  -2.09139   11.05362 
 6                     4.33384  -3.32352   11.05362 
 6                     5.04868  -2.0902    13.52139 
 6                     4.33471  -3.32739   13.52139 
 6                     5.04524  -2.09107   15.98999 
 6                     4.33375  -3.32398   15.98999 
 6                     5.04596  -2.09093   18.45425 
 6                     4.33398  -3.32468   18.45425 
 6                     5.04931  -2.09048   20.92373 
 6                     4.33526  -3.32782   20.92373 
 6                     5.0431   -2.09145   23.39023 
 6                     4.33298  -3.32195   23.39024 
 6                     5.03761  -2.08552   25.85484 
 6                     4.32507  -3.32016   25.85484 
 6                     5.04651  -2.08637   28.33265 
 6                     4.33023  -3.32747   28.33265 
 6                     5.16816  -2.19081   30.75326 
 6                     4.48151  -3.38061   30.75325 
 6                     5.61332  -0.04621  -0.00938 
 6                     5.43379  -1.40815  -0.00938 
 6                     5.46106   0.00374   2.41124 
 6                     5.27376  -1.41691   2.41123 
 6                     5.45253   0.00112   4.88906 
 6                     5.26616  -1.41212   4.88906 
 6                     5.45987  -0.00225   7.35367 
 6                     5.27412  -1.41073   7.35367 
 6                     5.46525   0.00104   9.82017 
 6                     5.27846  -1.41527   9.82017 
 6                     5.46232  -0.00066   12.28965 
 6                     5.27608  -1.41286   12.28965 
 6                     5.46171  -0.00106   14.75391 
 6                     5.27559  -1.41231   14.75391 
 6                     5.46455   0.00106   17.22251 
 6                     5.27779  -1.41509   17.22251 
 6                     5.4615   -0.0015    19.69028 
 6                     5.2755   -1.41184   19.69028 
 6                     5.46372  -0.00019   22.1545 
 6                     5.2773   -1.41369   22.1545 
 6                     5.4599    0.00114   24.62533 
 6                     5.27327  -1.41402   24.62533 
 6                     5.44152  -0.00308   27.09064 
 6                     5.25663  -1.40523   27.09064 
 6                     5.52619   0.00224   29.55872 
 6                     5.33709  -1.43235   29.55873 
 1                     5.14979   2.62822   31.70242 
 1                     5.7735    0.29865   31.70242 
 1                     3.75187   4.39867  -0.9585 
 1                     5.22023   2.48565  -0.95848 
 1                     1.78274   5.49922   31.70243 
 1                     3.87144   4.29378   31.7024 
 1                    -0.45743   5.76317  -0.95855 
 1                     1.93344   5.44798  -0.95853 
 1                    -2.62822   5.14979   31.70242 
 1                    -0.29865   5.7735    31.70242 
 1                    -4.39867   3.75187  -0.9585 
 1                    -2.48565   5.22023  -0.95848 
 1                    -5.49922   1.78274   31.70243 
 1                    -4.29377   3.87144   31.7024 
 1                    -5.76316  -0.45743  -0.95855 
 1                    -5.44798   1.93344  -0.95853 
 1                    -5.14979  -2.62822   31.70242 
 1                    -5.7735   -0.29865   31.70242 
 1                    -3.75187  -4.39867  -0.9585 
 1                    -5.22023  -2.48565  -0.95848 
 1                    -1.78274  -5.49922   31.70243 
 1                    -3.87144  -4.29377   31.7024 
 1                     0.45743  -5.76317  -0.95855 
 1                    -1.93344  -5.44798  -0.95853 
 1                     2.62822  -5.14979   31.70242 
 1                     0.29865  -5.7735    31.70242 
 1                     4.39867  -3.75187  -0.9585 
 1                     2.48565  -5.22023  -0.95848 
 1                     5.49922  -1.78274   31.70243 
 1                     4.29378  -3.87144   31.7024 
 1                     5.76317   0.45743  -0.95855 
 1                     5.44798  -1.93344  -0.95853 
 
 Symmetry turned off by external request.
 This structure is nearly, but not quite of a higher symmetry.
 Consider Symm=Loose if the higher symmetry is desired.
 Stoichiometry    C416H32
 Framework group  C2[X(C416H32)]
 Deg. of freedom   670
 Full point group                 C2      NOp   2
                          Input orientation:                          
 ---------------------------------------------------------------------
 Center     Atomic      Atomic             Coordinates (Angstroms)
 Number     Number       Type             X           Y           Z
 ---------------------------------------------------------------------
      1          6           0        5.105166    2.116987    1.185202
      2          6           0        5.479443    0.719212    1.185171
      3          6           0        5.028998    2.079655    3.653267
      4          6           0        5.394800    0.713472    3.653256
      5          6           0        5.044411    2.090613    6.118567
      6          6           0        5.413575    0.711738    6.118567
      7          6           0        5.048465    2.090853    8.589401
      8          6           0        5.417180    0.713589    8.589401
      9          6           0        5.046924    2.088801   11.053615
     10          6           0        5.414811    0.714614   11.053615
     11          6           0        5.048763    2.092331   13.521387
     12          6           0        5.418169    0.712487   13.521386
     13          6           0        5.046949    2.089288   15.989989
     14          6           0        5.415074    0.714219   15.989989
     15          6           0        5.047360    2.089896   18.454254
     16          6           0        5.415735    0.713893   18.454255
     17          6           0        5.049410    2.092586   20.923731
     18          6           0        5.418859    0.712577   20.923731
     19          6           0        5.045691    2.087488   23.390238
     20          6           0        5.413095    0.715111   23.390237
     21          6           0        5.037570    2.087773   25.854839
     22          6           0        5.406236    0.710767   25.854842
     23          6           0        5.044359    2.093433   28.332646
     24          6           0        5.414989    0.709231   28.332658
     25          6           0        5.204098    2.105551   30.753258
     26          6           0        5.559410    0.778574   30.753263
     27          6           0        4.002141    3.936615   -0.009337
     28          6           0        4.838600    2.846915   -0.009331
     29          6           0        3.859124    3.864195    2.411255
     30          6           0        4.731664    2.727516    2.411259
     31          6           0        3.854998    3.856346    4.889059
     32          6           0        4.723015    2.725599    4.889059
     33          6           0        3.862611    3.859174    7.353663
     34          6           0        4.727717    2.732244    7.353661
     35          6           0        3.864104    3.865315    9.820169
     36          6           0        4.734027    2.732119    9.820168
     37          6           0        3.863237    3.862042   12.289645
     38          6           0        4.730635    2.732139   12.289645
     39          6           0        3.863088    3.861322   14.753911
     40          6           0        4.729898    2.732187   14.753910
     41          6           0        3.863603    3.864834   17.222513
     42          6           0        4.733423    2.731776   17.222513
     43          6           0        3.863249    3.860864   19.690284
     44          6           0        4.729502    2.732453   19.690285
     45          6           0        3.863891    3.863357   22.154499
     46          6           0        4.732081    2.732415   22.154501
     47          6           0        3.860241    3.861600   24.625331
     48          6           0        4.729441    2.729323   24.625335
     49          6           0        3.850195    3.845602   27.090635
     50          6           0        4.711369    2.723722   27.090637
     51          6           0        3.906283    3.909257   29.558709
     52          6           0        4.787352    2.761407   29.558710
     53          6           0        2.112719    5.106170    1.185175
     54          6           0        3.365976    4.382859    1.185190
     55          6           0        2.085205    5.025863    3.653257
     56          6           0        3.310136    4.318890    3.653261
     57          6           0        2.088341    5.044421    6.118572
     58          6           0        3.324656    4.330924    6.118568
     59          6           0        2.091033    5.047427    8.589403
     60          6           0        3.325914    4.334785    8.589401
     61          6           0        2.091394    5.044881   11.053616
     62          6           0        3.323520    4.333839   11.053615
     63          6           0        2.090197    5.048674   13.521387
     64          6           0        3.327393    4.334704   13.521386
     65          6           0        2.091067    5.045241   15.989989
     66          6           0        3.323985    4.333744   15.989989
     67          6           0        2.090927    5.045962   18.454254
     68          6           0        3.324682    4.333980   18.454254
     69          6           0        2.090476    5.049314   20.923729
     70          6           0        3.327819    4.335256   20.923731
     71          6           0        2.091455    5.043095   23.390232
     72          6           0        3.321955    4.332982   23.390235
     73          6           0        2.085522    5.037604   25.854837
     74          6           0        3.320163    4.325071   25.854836
     75          6           0        2.086371    5.046506   28.332655
     76          6           0        3.327468    4.330231   28.332650
     77          6           0        2.190811    5.168163   30.753262
     78          6           0        3.380612    4.481504   30.753253
     79          6           0        0.046208    5.613322   -0.009378
     80          6           0        1.408147    5.433785   -0.009376
     81          6           0       -0.003740    5.461057    2.411237
     82          6           0        1.416907    5.273754    2.411233
     83          6           0       -0.001120    5.452529    4.889062
     84          6           0        1.412118    5.266156    4.889062
     85          6           0        0.002247    5.459874    7.353666
     86          6           0        1.410728    5.274118    7.353667
     87          6           0       -0.001041    5.465248    9.820170
     88          6           0        1.415273    5.278462    9.820170
     89          6           0        0.000658    5.462322   12.289645
     90          6           0        1.412861    5.276079   12.289645
     91          6           0        0.001061    5.461710   14.753911
     92          6           0        1.412306    5.275593   14.753911
     93          6           0       -0.001056    5.464550   17.222513
     94          6           0        1.415088    5.277788   17.222513
     95          6           0        0.001499    5.461501   19.690284
     96          6           0        1.411838    5.275503   19.690284
     97          6           0        0.000192    5.463714   22.154498
     98          6           0        1.413690    5.277300   22.154497
     99          6           0       -0.001138    5.459901   24.625330
    100          6           0        1.414017    5.273274   24.625328
    101          6           0        0.003083    5.441518   27.090642
    102          6           0        1.405229    5.256633   27.090643
    103          6           0       -0.002240    5.526187   29.558722
    104          6           0        1.432348    5.337085   29.558729
    105          6           0       -2.116986    5.105165    1.185202
    106          6           0       -0.719211    5.479443    1.185171
    107          6           0       -2.079654    5.028998    3.653267
    108          6           0       -0.713472    5.394799    3.653256
    109          6           0       -2.090612    5.044410    6.118567
    110          6           0       -0.711738    5.413575    6.118567
    111          6           0       -2.090852    5.048464    8.589401
    112          6           0       -0.713588    5.417179    8.589401
    113          6           0       -2.088800    5.046923   11.053615
    114          6           0       -0.714613    5.414810   11.053615
    115          6           0       -2.092330    5.048762   13.521387
    116          6           0       -0.712486    5.418168   13.521387
    117          6           0       -2.089287    5.046949   15.989989
    118          6           0       -0.714218    5.415074   15.989989
    119          6           0       -2.089895    5.047360   18.454254
    120          6           0       -0.713892    5.415735   18.454255
    121          6           0       -2.092585    5.049409   20.923731
    122          6           0       -0.712576    5.418858   20.923731
    123          6           0       -2.087487    5.045690   23.390238
    124          6           0       -0.715110    5.413094   23.390237
    125          6           0       -2.087772    5.037569   25.854839
    126          6           0       -0.710766    5.406235   25.854842
    127          6           0       -2.093432    5.044358   28.332646
    128          6           0       -0.709230    5.414989   28.332658
    129          6           0       -2.105550    5.204097   30.753258
    130          6           0       -0.778573    5.559410   30.753263
    131          6           0       -3.936614    4.002141   -0.009337
    132          6           0       -2.846914    4.838600   -0.009331
    133          6           0       -3.864194    3.859123    2.411255
    134          6           0       -2.727515    4.731663    2.411259
    135          6           0       -3.856345    3.854997    4.889059
    136          6           0       -2.725598    4.723014    4.889059
    137          6           0       -3.859173    3.862610    7.353663
    138          6           0       -2.732244    4.727717    7.353661
    139          6           0       -3.865314    3.864104    9.820169
    140          6           0       -2.732118    4.734026    9.820168
    141          6           0       -3.862041    3.863236   12.289645
    142          6           0       -2.732138    4.730634   12.289645
    143          6           0       -3.861321    3.863088   14.753911
    144          6           0       -2.732186    4.729898   14.753910
    145          6           0       -3.864833    3.863602   17.222513
    146          6           0       -2.731775    4.733423   17.222513
    147          6           0       -3.860863    3.863249   19.690284
    148          6           0       -2.732452    4.729501   19.690286
    149          6           0       -3.863356    3.863890   22.154499
    150          6           0       -2.732414    4.732080   22.154501
    151          6           0       -3.861599    3.860240   24.625331
    152          6           0       -2.729322    4.729440   24.625335
    153          6           0       -3.845601    3.850194   27.090635
    154          6           0       -2.723721    4.711368   27.090637
    155          6           0       -3.909257    3.906282   29.558709
    156          6           0       -2.761406    4.787351   29.558710
    157          6           0       -5.106169    2.112718    1.185175
    158          6           0       -4.382858    3.365975    1.185190
    159          6           0       -5.025863    2.085204    3.653257
    160          6           0       -4.318889    3.310135    3.653261
    161          6           0       -5.044420    2.088341    6.118572
    162          6           0       -4.330924    3.324656    6.118568
    163          6           0       -5.047426    2.091033    8.589403
    164          6           0       -4.334784    3.325913    8.589401
    165          6           0       -5.044880    2.091393   11.053616
    166          6           0       -4.333838    3.323520   11.053615
    167          6           0       -5.048673    2.090197   13.521387
    168          6           0       -4.334703    3.327393   13.521386
    169          6           0       -5.045240    2.091066   15.989989
    170          6           0       -4.333743    3.323984   15.989989
    171          6           0       -5.045961    2.090927   18.454254
    172          6           0       -4.333979    3.324681   18.454255
    173          6           0       -5.049313    2.090475   20.923729
    174          6           0       -4.335255    3.327818   20.923731
    175          6           0       -5.043094    2.091454   23.390232
    176          6           0       -4.332981    3.321955   23.390235
    177          6           0       -5.037603    2.085522   25.854837
    178          6           0       -4.325070    3.320163   25.854836
    179          6           0       -5.046505    2.086370   28.332655
    180          6           0       -4.330230    3.327468   28.332650
    181          6           0       -5.168162    2.190810   30.753262
    182          6           0       -4.481503    3.380611   30.753253
    183          6           0       -5.613321    0.046208   -0.009378
    184          6           0       -5.433784    1.408147   -0.009376
    185          6           0       -5.461056   -0.003741    2.411237
    186          6           0       -5.273753    1.416906    2.411233
    187          6           0       -5.452528   -0.001121    4.889062
    188          6           0       -5.266155    1.412117    4.889062
    189          6           0       -5.459873    0.002246    7.353666
    190          6           0       -5.274118    1.410728    7.353667
    191          6           0       -5.465247   -0.001042    9.820170
    192          6           0       -5.278461    1.415273    9.820170
    193          6           0       -5.462321    0.000657   12.289645
    194          6           0       -5.276078    1.412860   12.289645
    195          6           0       -5.461709    0.001061   14.753911
    196          6           0       -5.275592    1.412305   14.753911
    197          6           0       -5.464549   -0.001057   17.222513
    198          6           0       -5.277787    1.415088   17.222513
    199          6           0       -5.461500    0.001498   19.690284
    200          6           0       -5.275502    1.411837   19.690284
    201          6           0       -5.463713    0.000191   22.154498
    202          6           0       -5.277299    1.413689   22.154497
    203          6           0       -5.459900   -0.001138   24.625330
    204          6           0       -5.273273    1.414016   24.625328
    205          6           0       -5.441517    0.003082   27.090642
    206          6           0       -5.256632    1.405228   27.090643
    207          6           0       -5.526186   -0.002241   29.558722
    208          6           0       -5.337084    1.432348   29.558729
    209          6           0       -5.105164   -2.116987    1.185202
    210          6           0       -5.479442   -0.719212    1.185171
    211          6           0       -5.028997   -2.079655    3.653267
    212          6           0       -5.394798   -0.713472    3.653256
    213          6           0       -5.044409   -2.090613    6.118567
    214          6           0       -5.413574   -0.711738    6.118567
    215          6           0       -5.048463   -2.090853    8.589401
    216          6           0       -5.417178   -0.713589    8.589401
    217          6           0       -5.046922   -2.088801   11.053615
    218          6           0       -5.414809   -0.714614   11.053615
    219          6           0       -5.048761   -2.092330   13.521387
    220          6           0       -5.418167   -0.712487   13.521387
    221          6           0       -5.046948   -2.089287   15.989989
    222          6           0       -5.415073   -0.714218   15.989989
    223          6           0       -5.047359   -2.089896   18.454254
    224          6           0       -5.415734   -0.713893   18.454255
    225          6           0       -5.049408   -2.092586   20.923731
    226          6           0       -5.418857   -0.712576   20.923731
    227          6           0       -5.045689   -2.087488   23.390238
    228          6           0       -5.413093   -0.715110   23.390237
    229          6           0       -5.037568   -2.087773   25.854839
    230          6           0       -5.406234   -0.710766   25.854842
    231          6           0       -5.044357   -2.093433   28.332646
    232          6           0       -5.414988   -0.709231   28.332658
    233          6           0       -5.204096   -2.105551   30.753258
    234          6           0       -5.559409   -0.778574   30.753263
    235          6           0       -4.002140   -3.936614   -0.009337
    236          6           0       -4.838599   -2.846915   -0.009331
    237          6           0       -3.859123   -3.864195    2.411255
    238          6           0       -4.731663   -2.727516    2.411259
    239          6           0       -3.854996   -3.856345    4.889059
    240          6           0       -4.723013   -2.725598    4.889059
    241          6           0       -3.862610   -3.859174    7.353663
    242          6           0       -4.727715   -2.732244    7.353662
    243          6           0       -3.864103   -3.865314    9.820169
    244          6           0       -4.734025   -2.732119    9.820168
    245          6           0       -3.863235   -3.862042   12.289645
    246          6           0       -4.730633   -2.732138   12.289645
    247          6           0       -3.863087   -3.861322   14.753911
    248          6           0       -4.729897   -2.732187   14.753910
    249          6           0       -3.863601   -3.864834   17.222513
    250          6           0       -4.733422   -2.731776   17.222513
    251          6           0       -3.863248   -3.860864   19.690284
    252          6           0       -4.729500   -2.732453   19.690285
    253          6           0       -3.863889   -3.863357   22.154499
    254          6           0       -4.732079   -2.732414   22.154501
    255          6           0       -3.860239   -3.861600   24.625331
    256          6           0       -4.729439   -2.729323   24.625335
    257          6           0       -3.850193   -3.845602   27.090635
    258          6           0       -4.711367   -2.723722   27.090637
    259          6           0       -3.906281   -3.909257   29.558709
    260          6           0       -4.787351   -2.761407   29.558710
    261          6           0       -2.112717   -5.106169    1.185175
    262          6           0       -3.365975   -4.382859    1.185190
    263          6           0       -2.085203   -5.025863    3.653257
    264          6           0       -3.310134   -4.318890    3.653261
    265          6           0       -2.088340   -5.044421    6.118572
    266          6           0       -3.324655   -4.330924    6.118568
    267          6           0       -2.091032   -5.047427    8.589403
    268          6           0       -3.325912   -4.334785    8.589401
    269          6           0       -2.091392   -5.044881   11.053616
    270          6           0       -3.323518   -4.333838   11.053615
    271          6           0       -2.090196   -5.048674   13.521387
    272          6           0       -3.327392   -4.334704   13.521386
    273          6           0       -2.091065   -5.045241   15.989989
    274          6           0       -3.323983   -4.333744   15.989989
    275          6           0       -2.090926   -5.045962   18.454254
    276          6           0       -3.324680   -4.333980   18.454254
    277          6           0       -2.090474   -5.049314   20.923729
    278          6           0       -3.327817   -4.335256   20.923731
    279          6           0       -2.091453   -5.043095   23.390232
    280          6           0       -3.321954   -4.332982   23.390235
    281          6           0       -2.085521   -5.037604   25.854837
    282          6           0       -3.320162   -4.325071   25.854836
    283          6           0       -2.086369   -5.046506   28.332655
    284          6           0       -3.327467   -4.330231   28.332650
    285          6           0       -2.190809   -5.168163   30.753262
    286          6           0       -3.380610   -4.481504   30.753253
    287          6           0       -0.046207   -5.613322   -0.009378
    288          6           0       -1.408146   -5.433784   -0.009376
    289          6           0        0.003742   -5.461056    2.411237
    290          6           0       -1.416905   -5.273754    2.411233
    291          6           0        0.001121   -5.452529    4.889062
    292          6           0       -1.412116   -5.266156    4.889062
    293          6           0       -0.002245   -5.459874    7.353666
    294          6           0       -1.410727   -5.274118    7.353667
    295          6           0        0.001043   -5.465248    9.820170
    296          6           0       -1.415272   -5.278462    9.820170
    297          6           0       -0.000656   -5.462322   12.289645
    298          6           0       -1.412859   -5.276079   12.289645
    299          6           0       -0.001060   -5.461710   14.753911
    300          6           0       -1.412304   -5.275593   14.753911
    301          6           0        0.001058   -5.464550   17.222513
    302          6           0       -1.415087   -5.277788   17.222513
    303          6           0       -0.001497   -5.461501   19.690284
    304          6           0       -1.411836   -5.275502   19.690284
    305          6           0       -0.000190   -5.463714   22.154498
    306          6           0       -1.413688   -5.277300   22.154497
    307          6           0        0.001139   -5.459901   24.625330
    308          6           0       -1.414015   -5.273274   24.625328
    309          6           0       -0.003082   -5.441518   27.090642
    310          6           0       -1.405227   -5.256633   27.090643
    311          6           0        0.002242   -5.526187   29.558722
    312          6           0       -1.432347   -5.337085   29.558729
    313          6           0        2.116988   -5.105165    1.185202
    314          6           0        0.719213   -5.479442    1.185171
    315          6           0        2.079656   -5.028997    3.653267
    316          6           0        0.713473   -5.394799    3.653256
    317          6           0        2.090613   -5.044410    6.118567
    318          6           0        0.711739   -5.413574    6.118567
    319          6           0        2.090854   -5.048464    8.589401
    320          6           0        0.713590   -5.417179    8.589401
    321          6           0        2.088802   -5.046923   11.053615
    322          6           0        0.714615   -5.414810   11.053615
    323          6           0        2.092331   -5.048762   13.521387
    324          6           0        0.712488   -5.418168   13.521386
    325          6           0        2.089288   -5.046949   15.989989
    326          6           0        0.714219   -5.415073   15.989989
    327          6           0        2.089897   -5.047359   18.454254
    328          6           0        0.713894   -5.415734   18.454255
    329          6           0        2.092587   -5.049409   20.923731
    330          6           0        0.712577   -5.418858   20.923731
    331          6           0        2.087489   -5.045690   23.390238
    332          6           0        0.715111   -5.413094   23.390237
    333          6           0        2.087774   -5.037569   25.854839
    334          6           0        0.710767   -5.406235   25.854842
    335          6           0        2.093434   -5.044358   28.332646
    336          6           0        0.709232   -5.414988   28.332658
    337          6           0        2.105552   -5.204097   30.753258
    338          6           0        0.778574   -5.559410   30.753263
    339          6           0        3.936615   -4.002141   -0.009337
    340          6           0        2.846916   -4.838600   -0.009331
    341          6           0        3.864196   -3.859123    2.411255
    342          6           0        2.727517   -4.731663    2.411259
    343          6           0        3.856346   -3.854997    4.889059
    344          6           0        2.725599   -4.723014    4.889059
    345          6           0        3.859175   -3.862610    7.353663
    346          6           0        2.732245   -4.727716    7.353661
    347          6           0        3.865315   -3.864103    9.820169
    348          6           0        2.732119   -4.734026    9.820168
    349          6           0        3.862043   -3.863236   12.289645
    350          6           0        2.732139   -4.730634   12.289645
    351          6           0        3.861323   -3.863088   14.753911
    352          6           0        2.732188   -4.729898   14.753910
    353          6           0        3.864834   -3.863602   17.222513
    354          6           0        2.731777   -4.733422   17.222513
    355          6           0        3.860865   -3.863249   19.690284
    356          6           0        2.732453   -4.729501   19.690285
    357          6           0        3.863358   -3.863890   22.154499
    358          6           0        2.732415   -4.732080   22.154501
    359          6           0        3.861601   -3.860240   24.625331
    360          6           0        2.729324   -4.729440   24.625335
    361          6           0        3.845603   -3.850194   27.090635
    362          6           0        2.723723   -4.711368   27.090637
    363          6           0        3.909258   -3.906282   29.558709
    364          6           0        2.761408   -4.787351   29.558710
    365          6           0        5.106170   -2.112718    1.185175
    366          6           0        4.382860   -3.365975    1.185190
    367          6           0        5.025864   -2.085204    3.653257
    368          6           0        4.318891   -3.310135    3.653261
    369          6           0        5.044422   -2.088341    6.118572
    370          6           0        4.330925   -3.324655    6.118568
    371          6           0        5.047428   -2.091032    8.589403
    372          6           0        4.334786   -3.325913    8.589401
    373          6           0        5.044882   -2.091393   11.053616
    374          6           0        4.333839   -3.323519   11.053615
    375          6           0        5.048675   -2.090196   13.521387
    376          6           0        4.334705   -3.327392   13.521386
    377          6           0        5.045242   -2.091066   15.989989
    378          6           0        4.333745   -3.323984   15.989989
    379          6           0        5.045963   -2.090926   18.454254
    380          6           0        4.333981   -3.324681   18.454254
    381          6           0        5.049315   -2.090475   20.923729
    382          6           0        4.335257   -3.327818   20.923731
    383          6           0        5.043096   -2.091454   23.390232
    384          6           0        4.332983   -3.321954   23.390235
    385          6           0        5.037605   -2.085521   25.854837
    386          6           0        4.325072   -3.320163   25.854836
    387          6           0        5.046506   -2.086370   28.332655
    388          6           0        4.330232   -3.327468   28.332650
    389          6           0        5.168164   -2.190810   30.753262
    390          6           0        4.481505   -3.380611   30.753253
    391          6           0        5.613323   -0.046207   -0.009378
    392          6           0        5.433785   -1.408147   -0.009376
    393          6           0        5.461057    0.003741    2.411237
    394          6           0        5.273755   -1.416906    2.411233
    395          6           0        5.452530    0.001121    4.889062
    396          6           0        5.266157   -1.412117    4.889062
    397          6           0        5.459874   -0.002246    7.353666
    398          6           0        5.274119   -1.410728    7.353667
    399          6           0        5.465249    0.001042    9.820170
    400          6           0        5.278463   -1.415273    9.820170
    401          6           0        5.462323   -0.000657   12.289645
    402          6           0        5.276080   -1.412860   12.289645
    403          6           0        5.461710   -0.001060   14.753911
    404          6           0        5.275594   -1.412305   14.753911
    405          6           0        5.464551    0.001057   17.222513
    406          6           0        5.277789   -1.415087   17.222513
    407          6           0        5.461502   -0.001498   19.690284
    408          6           0        5.275503   -1.411837   19.690284
    409          6           0        5.463715   -0.000191   22.154498
    410          6           0        5.277301   -1.413689   22.154497
    411          6           0        5.459902    0.001138   24.625330
    412          6           0        5.273275   -1.414016   24.625328
    413          6           0        5.441519   -0.003082   27.090642
    414          6           0        5.256634   -1.405228   27.090643
    415          6           0        5.526188    0.002241   29.558722
    416          6           0        5.337086   -1.432348   29.558729
    417          1           0        5.149790    2.628222   31.702419
    418          1           0        5.773501    0.298653   31.702416
    419          1           0        3.751871    4.398668   -0.958499
    420          1           0        5.220234    2.485646   -0.958478
    421          1           0        1.782744    5.499220   31.702427
    422          1           0        3.871443    4.293775   31.702400
    423          1           0       -0.457429    5.763165   -0.958549
    424          1           0        1.933437    5.447980   -0.958534
    425          1           0       -2.628221    5.149790   31.702419
    426          1           0       -0.298652    5.773500   31.702416
    427          1           0       -4.398667    3.751871   -0.958499
    428          1           0       -2.485645    5.220233   -0.958478
    429          1           0       -5.499219    1.782743   31.702427
    430          1           0       -4.293773    3.871442   31.702400
    431          1           0       -5.763164   -0.457429   -0.958549
    432          1           0       -5.447979    1.933436   -0.958534
    433          1           0       -5.149789   -2.628222   31.702419
    434          1           0       -5.773499   -0.298653   31.702416
    435          1           0       -3.751870   -4.398668   -0.958499
    436          1           0       -5.220232   -2.485645   -0.958478
    437          1           0       -1.782742   -5.499220   31.702427
    438          1           0       -3.871441   -4.293774   31.702400
    439          1           0        0.457430   -5.763165   -0.958549
    440          1           0       -1.933435   -5.447979   -0.958534
    441          1           0        2.628223   -5.149790   31.702419
    442          1           0        0.298654   -5.773500   31.702416
    443          1           0        4.398669   -3.751871   -0.958499
    444          1           0        2.485646   -5.220233   -0.958478
    445          1           0        5.499221   -1.782743   31.702427
    446          1           0        4.293775   -3.871442   31.702400
    447          1           0        5.763165    0.457430   -0.958549
    448          1           0        5.447980   -1.933436   -0.958534
 ---------------------------------------------------------------------
 Rotational constants (GHZ):           0.0033511           0.0009892           0.0009892
 Standard basis: 6-311G(d) (5D, 7F)
  7584 basis functions, 13472 primitive gaussians,  8000 cartesian basis functions
  1264 alpha electrons     1264 beta electrons
       nuclear repulsion energy    165161.9873500574 Hartrees.
 NAtoms=  448 NActive=  448 NUniq=  448 SFac= 1.00D+00 NAtFMM=   60 NAOKFM=T Big=T
 Integral buffers will be    131072 words long.
 Raffenetti 2 integral format.
 Two-electron integral symmetry is turned off.
 One-electron integrals computed using PRISM.
 NBasis=  7584 RedAO= T EigKep=  2.69D-06  NBF=  7584
 NBsUse=  7584 1.00D-06 EigRej= -1.00D+00 NBFU=  7584
 ExpMin= 1.03D-01 ExpMax= 4.56D+03 ExpMxC= 6.82D+02 IAcc=3 IRadAn=         5 AccDes= 0.00D+00
 Harris functional with IExCor=  402 and IRadAn=       5 diagonalized for initial guess.
 HarFok:  IExCor=  402 AccDes= 0.00D+00 IRadAn=         5 IDoV= 1 UseB2=F ITyADJ=14
 ICtDFT=  3500011 ScaDFX=  1.000000  1.000000  1.000000  1.000000
 FoFCou: FMM=F IPFlag=           0 FMFlag=      100000 FMFlg1=        2001
         NFxFlg=           0 DoJE=T BraDBF=F KetDBF=T FulRan=T
         wScrn=  0.000000 ICntrl=       500 IOpCl=  0 I1Cent=   200000004 NGrid=           0
         NMat0=    1 NMatS0=      1 NMatT0=    0 NMatD0=    1 NMtDS0=    0 NMtDT0=    0
 Symmetry not used in FoFCou.
 Requested convergence on RMS density matrix=1.00D-08 within 128 cycles.
 Requested convergence on MAX density matrix=1.00D-06.
 Requested convergence on             energy=1.00D-06.
 No special actions if energy rises.
 Integral accuracy reduced to 1.0D-05 until final iterations.
 Problem detected with inexpensive integrals.
 Switching to full accuracy and repeating last cycle.
 SCF Done:  E(RB3LYP) =  -15877.5218012     A.U. after   15 cycles
            NFock= 15  Conv=0.59D-08     -V/T= 2.0042
 Hyperfine terms turned off by default for NAtoms > 100.

 **********************************************************************

            Population analysis using the SCF Density.

 **********************************************************************

 Alpha  occ. eigenvalues --  -10.21049 -10.21049 -10.21049 -10.21047 -10.21047
 Alpha  occ. eigenvalues --  -10.21043 -10.21043 -10.21042 -10.21041 -10.21041
 Alpha  occ. eigenvalues --  -10.21040 -10.21039 -10.21038 -10.21038 -10.21035
 Alpha  occ. eigenvalues --  -10.21035 -10.21032 -10.21031 -10.21031 -10.21031
 Alpha  occ. eigenvalues --  -10.21031 -10.21030 -10.21030 -10.21029 -10.21029
 Alpha  occ. eigenvalues --  -10.21026 -10.21026 -10.21024 -10.21023 -10.21023
 Alpha  occ. eigenvalues --  -10.21023 -10.21023 -10.21022 -10.21022 -10.21021
 Alpha  occ. eigenvalues --  -10.21021 -10.21021 -10.21021 -10.21019 -10.21019
 Alpha  occ. eigenvalues --  -10.21017 -10.21017 -10.21016 -10.21016 -10.21015
 Alpha  occ. eigenvalues --  -10.21014 -10.21014 -10.21014 -10.21014 -10.21014
 Alpha  occ. eigenvalues --  -10.21013 -10.21013 -10.21013 -10.21013 -10.21012
 Alpha  occ. eigenvalues --  -10.21012 -10.21009 -10.21009 -10.21008 -10.21008
 Alpha  occ. eigenvalues --  -10.21007 -10.21007 -10.21006 -10.21005 -10.21005
 Alpha  occ. eigenvalues --  -10.21004 -10.21004 -10.21004 -10.21003 -10.21003
 Alpha  occ. eigenvalues --  -10.21001 -10.21001 -10.21000 -10.21000 -10.20997
 Alpha  occ. eigenvalues --  -10.20997 -10.20997 -10.20997 -10.20997 -10.20992
 Alpha  occ. eigenvalues --  -10.20992 -10.20992 -10.20991 -10.20991 -10.20990
 Alpha  occ. eigenvalues --  -10.20990 -10.20988 -10.20988 -10.20988 -10.20988
 Alpha  occ. eigenvalues --  -10.20987 -10.20985 -10.20985 -10.20985 -10.20985
 Alpha  occ. eigenvalues --  -10.20983 -10.20980 -10.20977 -10.20977 -10.20976
 Alpha  occ. eigenvalues --  -10.20976 -10.20975 -10.20974 -10.20972 -10.20972
 Alpha  occ. eigenvalues --  -10.20972 -10.20972 -10.20971 -10.20971 -10.20968
 Alpha  occ. eigenvalues --  -10.20968 -10.20967 -10.20967 -10.20966 -10.20966
 Alpha  occ. eigenvalues --  -10.20964 -10.20964 -10.20964 -10.20964 -10.20964
 Alpha  occ. eigenvalues --  -10.20963 -10.20963 -10.20962 -10.20962 -10.20960
 Alpha  occ. eigenvalues --  -10.20960 -10.20960 -10.20960 -10.20959 -10.20959
 Alpha  occ. eigenvalues --  -10.20959 -10.20959 -10.20959 -10.20959 -10.20958
 Alpha  occ. eigenvalues --  -10.20958 -10.20957 -10.20957 -10.20956 -10.20956
 Alpha  occ. eigenvalues --  -10.20955 -10.20955 -10.20955 -10.20955 -10.20955
 Alpha  occ. eigenvalues --  -10.20955 -10.20954 -10.20952 -10.20952 -10.20950
 Alpha  occ. eigenvalues --  -10.20950 -10.20948 -10.20948 -10.20947 -10.20947
 Alpha  occ. eigenvalues --  -10.20946 -10.20946 -10.20945 -10.20945 -10.20944
 Alpha  occ. eigenvalues --  -10.20941 -10.20941 -10.20941 -10.20941 -10.20939
 Alpha  occ. eigenvalues --  -10.20939 -10.20939 -10.20939 -10.20939 -10.20939
 Alpha  occ. eigenvalues --  -10.20937 -10.20936 -10.20936 -10.20935 -10.20935
 Alpha  occ. eigenvalues --  -10.20935 -10.20935 -10.20932 -10.20932 -10.20931
 Alpha  occ. eigenvalues --  -10.20931 -10.20931 -10.20931 -10.20931 -10.20929
 Alpha  occ. eigenvalues --  -10.20929 -10.20929 -10.20929 -10.20929 -10.20929
 Alpha  occ. eigenvalues --  -10.20928 -10.20928 -10.20920 -10.20920 -10.20920
 Alpha  occ. eigenvalues --  -10.20920 -10.20919 -10.20919 -10.20919 -10.20919
 Alpha  occ. eigenvalues --  -10.20918 -10.20918 -10.20918 -10.20918 -10.20918
 Alpha  occ. eigenvalues --  -10.20918 -10.20914 -10.20914 -10.20910 -10.20910
 Alpha  occ. eigenvalues --  -10.20905 -10.20905 -10.20905 -10.20905 -10.20900
 Alpha  occ. eigenvalues --  -10.20900 -10.20900 -10.20900 -10.20895 -10.20895
 Alpha  occ. eigenvalues --  -10.20895 -10.20895 -10.20893 -10.20893 -10.20884
 Alpha  occ. eigenvalues --  -10.20884 -10.20881 -10.20881 -10.20881 -10.20881
 Alpha  occ. eigenvalues --  -10.20877 -10.20877 -10.20876 -10.20876 -10.20872
 Alpha  occ. eigenvalues --  -10.20872 -10.20872 -10.20872 -10.20870 -10.20869
 Alpha  occ. eigenvalues --  -10.20855 -10.20855 -10.20852 -10.20852 -10.20852
 Alpha  occ. eigenvalues --  -10.20852 -10.20848 -10.20848 -10.20848 -10.20848
 Alpha  occ. eigenvalues --  -10.20844 -10.20844 -10.20844 -10.20844 -10.20842
 Alpha  occ. eigenvalues --  -10.20842 -10.20834 -10.20834 -10.20834 -10.20834
 Alpha  occ. eigenvalues --  -10.20834 -10.20834 -10.20834 -10.20834 -10.20833
 Alpha  occ. eigenvalues --  -10.20833 -10.20833 -10.20833 -10.20833 -10.20833
 Alpha  occ. eigenvalues --  -10.20833 -10.20833 -10.20821 -10.20820 -10.20819
 Alpha  occ. eigenvalues --  -10.20819 -10.20819 -10.20819 -10.20815 -10.20815
 Alpha  occ. eigenvalues --  -10.20815 -10.20815 -10.20812 -10.20812 -10.20812
 Alpha  occ. eigenvalues --  -10.20812 -10.20810 -10.20810 -10.20800 -10.20800
 Alpha  occ. eigenvalues --  -10.20799 -10.20799 -10.20799 -10.20799 -10.20799
 Alpha  occ. eigenvalues --  -10.20799 -10.20799 -10.20799 -10.20799 -10.20799
 Alpha  occ. eigenvalues --  -10.20799 -10.20799 -10.20799 -10.20799 -10.20786
 Alpha  occ. eigenvalues --  -10.20786 -10.20785 -10.20785 -10.20785 -10.20785
 Alpha  occ. eigenvalues --  -10.20782 -10.20782 -10.20782 -10.20782 -10.20779
 Alpha  occ. eigenvalues --  -10.20779 -10.20779 -10.20779 -10.20778 -10.20778
 Alpha  occ. eigenvalues --  -10.20747 -10.20747 -10.20746 -10.20746 -10.20746
 Alpha  occ. eigenvalues --  -10.20746 -10.20743 -10.20743 -10.20743 -10.20743
 Alpha  occ. eigenvalues --  -10.20739 -10.20739 -10.20739 -10.20739 -10.20737
 Alpha  occ. eigenvalues --  -10.20737 -10.20727 -10.20727 -10.20724 -10.20724
 Alpha  occ. eigenvalues --  -10.20724 -10.20724 -10.20719 -10.20719 -10.20719
 Alpha  occ. eigenvalues --  -10.20719 -10.20712 -10.20712 -10.20712 -10.20712
 Alpha  occ. eigenvalues --  -10.20706 -10.20706 -10.20704 -10.20704 -10.20698
 Alpha  occ. eigenvalues --  -10.20698 -10.20698 -10.20698 -10.20690 -10.20690
 Alpha  occ. eigenvalues --  -10.20690 -10.20690 -10.20683 -10.20683 -10.20683
 Alpha  occ. eigenvalues --  -10.20683 -10.20680 -10.20679 -10.20672 -10.20672
 Alpha  occ. eigenvalues --  -10.20669 -10.20669 -10.20669 -10.20669 -10.20666
 Alpha  occ. eigenvalues --  -10.20666 -10.20665 -10.20665 -10.20663 -10.20663
 Alpha  occ. eigenvalues --  -10.20663 -10.20663 -10.20662 -10.20662 -10.19622
 Alpha  occ. eigenvalues --  -10.19622 -10.19622 -10.19622 -10.19622 -10.19622
 Alpha  occ. eigenvalues --  -10.19622 -10.19622 -10.19622 -10.19622 -10.19622
 Alpha  occ. eigenvalues --  -10.19622 -10.19621 -10.19621 -10.19621 -10.19621
 Alpha  occ. eigenvalues --  -10.19561 -10.19561 -10.19561 -10.19561 -10.19561
 Alpha  occ. eigenvalues --  -10.19561 -10.19561 -10.19561 -10.19561 -10.19561
 Alpha  occ. eigenvalues --  -10.19561 -10.19560 -10.19560 -10.19560 -10.19560
 Alpha  occ. eigenvalues --  -10.19560  -0.95432  -0.95085  -0.95057  -0.95057
 Alpha  occ. eigenvalues --   -0.94710  -0.94710  -0.94563  -0.94189  -0.94189
 Alpha  occ. eigenvalues --   -0.93937  -0.93936  -0.93850  -0.93591  -0.93590
 Alpha  occ. eigenvalues --   -0.93477  -0.93477  -0.93072  -0.93072  -0.92956
 Alpha  occ. eigenvalues --   -0.92586  -0.92586  -0.92365  -0.92365  -0.92084
 Alpha  occ. eigenvalues --   -0.92084  -0.91894  -0.91739  -0.91739  -0.91526
 Alpha  occ. eigenvalues --   -0.91526  -0.91480  -0.91480  -0.91226  -0.91226
 Alpha  occ. eigenvalues --   -0.90666  -0.90529  -0.90529  -0.90429  -0.90429
 Alpha  occ. eigenvalues --   -0.90301  -0.90301  -0.89657  -0.89657  -0.89523
 Alpha  occ. eigenvalues --   -0.89522  -0.89276  -0.89213  -0.89213  -0.89182
 Alpha  occ. eigenvalues --   -0.89182  -0.88914  -0.88914  -0.88678  -0.88678
 Alpha  occ. eigenvalues --   -0.88621  -0.88621  -0.87998  -0.87998  -0.87836
 Alpha  occ. eigenvalues --   -0.87836  -0.87649  -0.87427  -0.87427  -0.87290
 Alpha  occ. eigenvalues --   -0.87290  -0.87158  -0.87158  -0.86290  -0.86290
 Alpha  occ. eigenvalues --   -0.86227  -0.86226  -0.86128  -0.86128  -0.86094
 Alpha  occ. eigenvalues --   -0.86094  -0.85957  -0.85957  -0.85887  -0.85535
 Alpha  occ. eigenvalues --   -0.85535  -0.85434  -0.85434  -0.84930  -0.84929
 Alpha  occ. eigenvalues --   -0.84859  -0.84859  -0.84495  -0.84495  -0.84407
 Alpha  occ. eigenvalues --   -0.84407  -0.83971  -0.83965  -0.83965  -0.83626
 Alpha  occ. eigenvalues --   -0.83626  -0.83567  -0.83567  -0.82927  -0.82927
 Alpha  occ. eigenvalues --   -0.82762  -0.82762  -0.82645  -0.82644  -0.82436
 Alpha  occ. eigenvalues --   -0.82436  -0.82080  -0.82080  -0.81988  -0.81988
 Alpha  occ. eigenvalues --   -0.81915  -0.81710  -0.81710  -0.81632  -0.81632
 Alpha  occ. eigenvalues --   -0.81582  -0.81582  -0.80995  -0.80995  -0.80953
 Alpha  occ. eigenvalues --   -0.80953  -0.80667  -0.80667  -0.80298  -0.80298
 Alpha  occ. eigenvalues --   -0.80293  -0.80293  -0.80051  -0.80051  -0.79736
 Alpha  occ. eigenvalues --   -0.79428  -0.79428  -0.79254  -0.79254  -0.79206
 Alpha  occ. eigenvalues --   -0.79206  -0.78599  -0.78599  -0.78513  -0.78512
 Alpha  occ. eigenvalues --   -0.78392  -0.78392  -0.78133  -0.78133  -0.78070
 Alpha  occ. eigenvalues --   -0.78070  -0.77804  -0.77804  -0.77486  -0.77486
 Alpha  occ. eigenvalues --   -0.77464  -0.77377  -0.77377  -0.77158  -0.77158
 Alpha  occ. eigenvalues --   -0.76777  -0.76777  -0.76775  -0.76775  -0.76745
 Alpha  occ. eigenvalues --   -0.76745  -0.76714  -0.76714  -0.76338  -0.76337
 Alpha  occ. eigenvalues --   -0.75920  -0.75920  -0.75867  -0.75867  -0.75395
 Alpha  occ. eigenvalues --   -0.75395  -0.75332  -0.75332  -0.75212  -0.75212
 Alpha  occ. eigenvalues --   -0.75178  -0.75178  -0.75136  -0.74898  -0.74801
 Alpha  occ. eigenvalues --   -0.74801  -0.74752  -0.74752  -0.74578  -0.74472
 Alpha  occ. eigenvalues --   -0.74472  -0.74128  -0.74008  -0.74008  -0.73989
 Alpha  occ. eigenvalues --   -0.73989  -0.73552  -0.73460  -0.73460  -0.72826
 Alpha  occ. eigenvalues --   -0.72817  -0.72809  -0.72809  -0.72762  -0.72762
 Alpha  occ. eigenvalues --   -0.71933  -0.71662  -0.71662  -0.71388  -0.71388
 Alpha  occ. eigenvalues --   -0.70868  -0.70621  -0.70160  -0.69863  -0.69708
 Alpha  occ. eigenvalues --   -0.69707  -0.69641  -0.69449  -0.69414  -0.69414
 Alpha  occ. eigenvalues --   -0.69261  -0.69261  -0.68896  -0.68760  -0.68462
 Alpha  occ. eigenvalues --   -0.68462  -0.68263  -0.68139  -0.68138  -0.68118
 Alpha  occ. eigenvalues --   -0.67846  -0.67846  -0.67695  -0.67634  -0.67634
 Alpha  occ. eigenvalues --   -0.67506  -0.67395  -0.67395  -0.67342  -0.67342
 Alpha  occ. eigenvalues --   -0.67311  -0.66884  -0.66884  -0.66737  -0.66737
 Alpha  occ. eigenvalues --   -0.66532  -0.66448  -0.66448  -0.66330  -0.66330
 Alpha  occ. eigenvalues --   -0.66281  -0.66281  -0.66166  -0.66166  -0.65761
 Alpha  occ. eigenvalues --   -0.65761  -0.65542  -0.65542  -0.65355  -0.65355
 Alpha  occ. eigenvalues --   -0.65345  -0.65345  -0.65142  -0.65142  -0.65122
 Alpha  occ. eigenvalues --   -0.65122  -0.64802  -0.64795  -0.64795  -0.64778
 Alpha  occ. eigenvalues --   -0.64778  -0.64763  -0.64763  -0.64373  -0.64373
 Alpha  occ. eigenvalues --   -0.64325  -0.64325  -0.64197  -0.64196  -0.63031
 Alpha  occ. eigenvalues --   -0.63031  -0.62937  -0.62937  -0.62935  -0.62876
 Alpha  occ. eigenvalues --   -0.62876  -0.62694  -0.62694  -0.62560  -0.62560
 Alpha  occ. eigenvalues --   -0.61910  -0.61910  -0.60936  -0.60827  -0.60827
 Alpha  occ. eigenvalues --   -0.60750  -0.60750  -0.60695  -0.60694  -0.60484
 Alpha  occ. eigenvalues --   -0.60483  -0.60410  -0.60409  -0.60297  -0.60297
 Alpha  occ. eigenvalues --   -0.60186  -0.60185  -0.60134  -0.60134  -0.59970
 Alpha  occ. eigenvalues --   -0.59969  -0.59872  -0.59871  -0.59683  -0.59682
 Alpha  occ. eigenvalues --   -0.59270  -0.59270  -0.59233  -0.59141  -0.58816
 Alpha  occ. eigenvalues --   -0.58602  -0.58602  -0.58241  -0.57864  -0.57864
 Alpha  occ. eigenvalues --   -0.57760  -0.57688  -0.57688  -0.57528  -0.57528
 Alpha  occ. eigenvalues --   -0.57510  -0.57510  -0.57290  -0.57290  -0.56895
 Alpha  occ. eigenvalues --   -0.56895  -0.56816  -0.56586  -0.56495  -0.56495
 Alpha  occ. eigenvalues --   -0.56384  -0.56384  -0.56026  -0.56026  -0.55877
 Alpha  occ. eigenvalues --   -0.55812  -0.55812  -0.55050  -0.55050  -0.55035
 Alpha  occ. eigenvalues --   -0.55035  -0.54981  -0.54858  -0.54858  -0.54702
 Alpha  occ. eigenvalues --   -0.54702  -0.54596  -0.54596  -0.54467  -0.54467
 Alpha  occ. eigenvalues --   -0.54466  -0.54466  -0.54451  -0.54451  -0.54297
 Alpha  occ. eigenvalues --   -0.54297  -0.54261  -0.54141  -0.54141  -0.53877
 Alpha  occ. eigenvalues --   -0.53814  -0.53814  -0.53708  -0.53707  -0.53693
 Alpha  occ. eigenvalues --   -0.53693  -0.53246  -0.53246  -0.53029  -0.53028
 Alpha  occ. eigenvalues --   -0.52773  -0.52720  -0.52719  -0.52533  -0.52532
 Alpha  occ. eigenvalues --   -0.52498  -0.52498  -0.52003  -0.52003  -0.51949
 Alpha  occ. eigenvalues --   -0.51948  -0.51849  -0.51845  -0.51774  -0.51774
 Alpha  occ. eigenvalues --   -0.51456  -0.51456  -0.51158  -0.51158  -0.50984
 Alpha  occ. eigenvalues --   -0.50983  -0.50439  -0.50439  -0.50425  -0.50418
 Alpha  occ. eigenvalues --   -0.50418  -0.50297  -0.50297  -0.49816  -0.49816
 Alpha  occ. eigenvalues --   -0.49763  -0.49544  -0.49544  -0.49464  -0.49464
 Alpha  occ. eigenvalues --   -0.49374  -0.49374  -0.49367  -0.49318  -0.49318
 Alpha  occ. eigenvalues --   -0.49288  -0.49288  -0.49179  -0.49178  -0.49105
 Alpha  occ. eigenvalues --   -0.49105  -0.48657  -0.48657  -0.48517  -0.48517
 Alpha  occ. eigenvalues --   -0.48513  -0.48513  -0.48501  -0.48500  -0.48480
 Alpha  occ. eigenvalues --   -0.48480  -0.48270  -0.48270  -0.48203  -0.48180
 Alpha  occ. eigenvalues --   -0.48180  -0.48118  -0.48117  -0.48097  -0.48097
 Alpha  occ. eigenvalues --   -0.47945  -0.47766  -0.47766  -0.47657  -0.47546
 Alpha  occ. eigenvalues --   -0.47501  -0.47501  -0.47340  -0.47340  -0.47263
 Alpha  occ. eigenvalues --   -0.47263  -0.47104  -0.47104  -0.46946  -0.46917
 Alpha  occ. eigenvalues --   -0.46917  -0.46897  -0.46897  -0.46721  -0.46653
 Alpha  occ. eigenvalues --   -0.46653  -0.46521  -0.46521  -0.46395  -0.46395
 Alpha  occ. eigenvalues --   -0.46309  -0.46309  -0.46294  -0.46221  -0.46221
 Alpha  occ. eigenvalues --   -0.46126  -0.46063  -0.46063  -0.45963  -0.45963
 Alpha  occ. eigenvalues --   -0.45929  -0.45928  -0.45828  -0.45827  -0.45702
 Alpha  occ. eigenvalues --   -0.45702  -0.45631  -0.45313  -0.45313  -0.45296
 Alpha  occ. eigenvalues --   -0.45296  -0.45280  -0.45279  -0.45233  -0.45233
 Alpha  occ. eigenvalues --   -0.45213  -0.45213  -0.45142  -0.45142  -0.45097
 Alpha  occ. eigenvalues --   -0.45007  -0.45007  -0.44983  -0.44982  -0.44888
 Alpha  occ. eigenvalues --   -0.44887  -0.44817  -0.44817  -0.44791  -0.44765
 Alpha  occ. eigenvalues --   -0.44765  -0.44703  -0.44703  -0.44702  -0.44702
 Alpha  occ. eigenvalues --   -0.44599  -0.44599  -0.44596  -0.44596  -0.44562
 Alpha  occ. eigenvalues --   -0.44561  -0.44499  -0.44499  -0.44486  -0.44486
 Alpha  occ. eigenvalues --   -0.44363  -0.44363  -0.44363  -0.44362  -0.44326
 Alpha  occ. eigenvalues --   -0.44201  -0.44200  -0.44175  -0.44175  -0.44174
 Alpha  occ. eigenvalues --   -0.44118  -0.44118  -0.44065  -0.44065  -0.43921
 Alpha  occ. eigenvalues --   -0.43921  -0.43895  -0.43768  -0.43768  -0.43710
 Alpha  occ. eigenvalues --   -0.43710  -0.43647  -0.43647  -0.43611  -0.43611
 Alpha  occ. eigenvalues --   -0.43590  -0.43589  -0.43372  -0.43267  -0.43267
 Alpha  occ. eigenvalues --   -0.43220  -0.43220  -0.42932  -0.42932  -0.42920
 Alpha  occ. eigenvalues --   -0.42920  -0.42616  -0.42616  -0.42603  -0.42569
 Alpha  occ. eigenvalues --   -0.42568  -0.42451  -0.42451  -0.42443  -0.42443
 Alpha  occ. eigenvalues --   -0.42345  -0.42344  -0.42188  -0.42188  -0.42123
 Alpha  occ. eigenvalues --   -0.42123  -0.42071  -0.42071  -0.42064  -0.42064
 Alpha  occ. eigenvalues --   -0.42020  -0.42019  -0.41967  -0.41683  -0.41683
 Alpha  occ. eigenvalues --   -0.41680  -0.41680  -0.41638  -0.41558  -0.41558
 Alpha  occ. eigenvalues --   -0.41525  -0.41525  -0.41409  -0.41409  -0.41391
 Alpha  occ. eigenvalues --   -0.41391  -0.41307  -0.41307  -0.41299  -0.41299
 Alpha  occ. eigenvalues --   -0.41039  -0.41039  -0.41022  -0.41021  -0.40930
 Alpha  occ. eigenvalues --   -0.40930  -0.40865  -0.40865  -0.40809  -0.40809
 Alpha  occ. eigenvalues --   -0.40608  -0.40608  -0.40422  -0.40421  -0.40394
 Alpha  occ. eigenvalues --   -0.40394  -0.40041  -0.40041  -0.39631  -0.39631
 Alpha  occ. eigenvalues --   -0.39600  -0.39417  -0.39417  -0.39251  -0.39251
 Alpha  occ. eigenvalues --   -0.39164  -0.39164  -0.39162  -0.39074  -0.39074
 Alpha  occ. eigenvalues --   -0.39053  -0.39053  -0.38809  -0.38809  -0.38772
 Alpha  occ. eigenvalues --   -0.38772  -0.38739  -0.38738  -0.38738  -0.38595
 Alpha  occ. eigenvalues --   -0.38595  -0.38282  -0.38282  -0.38277  -0.38276
 Alpha  occ. eigenvalues --   -0.38214  -0.38097  -0.38096  -0.38059  -0.38059
 Alpha  occ. eigenvalues --   -0.38047  -0.38046  -0.37805  -0.37805  -0.37774
 Alpha  occ. eigenvalues --   -0.37774  -0.37596  -0.37595  -0.37571  -0.37571
 Alpha  occ. eigenvalues --   -0.37327  -0.37327  -0.37114  -0.37114  -0.36942
 Alpha  occ. eigenvalues --   -0.36867  -0.36867  -0.36860  -0.36860  -0.36827
 Alpha  occ. eigenvalues --   -0.36735  -0.36735  -0.36562  -0.36562  -0.36426
 Alpha  occ. eigenvalues --   -0.36425  -0.36343  -0.36341  -0.36341  -0.36313
 Alpha  occ. eigenvalues --   -0.36313  -0.36218  -0.36218  -0.36185  -0.36184
 Alpha  occ. eigenvalues --   -0.36161  -0.36161  -0.36028  -0.36028  -0.35941
 Alpha  occ. eigenvalues --   -0.35941  -0.35933  -0.35933  -0.35645  -0.35645
 Alpha  occ. eigenvalues --   -0.35338  -0.35338  -0.35280  -0.35280  -0.35274
 Alpha  occ. eigenvalues --   -0.35028  -0.35028  -0.34864  -0.34864  -0.34744
[...]
   293  C   -0.000524  -0.000524
   294  C   -0.000517  -0.000517
   295  C   -0.000544  -0.000544
   296  C   -0.000537  -0.000537
   297  C   -0.000471  -0.000471
   298  C   -0.000464  -0.000464
   299  C   -0.000486  -0.000486
   300  C   -0.000479  -0.000479
   301  C   -0.000504  -0.000504
   302  C   -0.000497  -0.000497
   303  C   -0.000525  -0.000525
   304  C   -0.000519  -0.000519
   305  C   -0.000468  -0.000468
   306  C   -0.000461  -0.000461
   307  C   -0.000638  -0.000638
   308  C   -0.000632  -0.000632
   309  C   -0.001141  -0.001154
   310  C   -0.001135  -0.001148
   311  C   -0.000907  -0.005021
   312  C   -0.000901  -0.005014
   313  C   -0.000908  -0.005021
   314  C   -0.000903  -0.005016
   315  C   -0.001142  -0.001155
   316  C   -0.001138  -0.001150
   317  C   -0.000640  -0.000640
   318  C   -0.000637  -0.000637
   319  C   -0.000469  -0.000469
   320  C   -0.000465  -0.000465
   321  C   -0.000526  -0.000526
   322  C   -0.000522  -0.000522
   323  C   -0.000505  -0.000505
   324  C   -0.000502  -0.000502
   325  C   -0.000487  -0.000487
   326  C   -0.000483  -0.000483
   327  C   -0.000472  -0.000472
   328  C   -0.000468  -0.000468
   329  C   -0.000545  -0.000545
   330  C   -0.000542  -0.000542
   331  C   -0.000524  -0.000524
   332  C   -0.000521  -0.000521
   333  C   -0.000853  -0.000854
   334  C   -0.000849  -0.000850
   335  C    0.000191  -0.000033
   336  C    0.000195  -0.000030
   337  C    0.006801   0.011151
   338  C    0.006801   0.011151
   339  C    0.006801   0.011151
   340  C    0.006803   0.011153
   341  C    0.000194  -0.000030
   342  C    0.000188  -0.000036
   343  C   -0.000853  -0.000853
   344  C   -0.000853  -0.000854
   345  C   -0.000524  -0.000524
   346  C   -0.000524  -0.000524
   347  C   -0.000545  -0.000545
   348  C   -0.000546  -0.000546
   349  C   -0.000471  -0.000471
   350  C   -0.000471  -0.000471
   351  C   -0.000486  -0.000486
   352  C   -0.000486  -0.000486
   353  C   -0.000505  -0.000505
   354  C   -0.000505  -0.000505
   355  C   -0.000526  -0.000526
   356  C   -0.000526  -0.000526
   357  C   -0.000469  -0.000469
   358  C   -0.000469  -0.000469
   359  C   -0.000640  -0.000640
   360  C   -0.000640  -0.000640
   361  C   -0.001140  -0.001152
   362  C   -0.001142  -0.001155
   363  C   -0.000909  -0.005022
   364  C   -0.000911  -0.005024
   365  C   -0.000905  -0.005018
   366  C   -0.000905  -0.005018
   367  C   -0.001138  -0.001151
   368  C   -0.001136  -0.001149
   369  C   -0.000636  -0.000636
   370  C   -0.000631  -0.000631
   371  C   -0.000466  -0.000466
   372  C   -0.000460  -0.000460
   373  C   -0.000523  -0.000523
   374  C   -0.000518  -0.000518
   375  C   -0.000502  -0.000502
   376  C   -0.000497  -0.000497
   377  C   -0.000483  -0.000483
   378  C   -0.000478  -0.000478
   379  C   -0.000468  -0.000468
   380  C   -0.000463  -0.000463
   381  C   -0.000542  -0.000542
   382  C   -0.000537  -0.000537
   383  C   -0.000521  -0.000521
   384  C   -0.000516  -0.000516
   385  C   -0.000850  -0.000850
   386  C   -0.000845  -0.000845
   387  C    0.000195  -0.000029
   388  C    0.000193  -0.000031
   389  C    0.006802   0.011152
   390  C    0.006804   0.011154
   391  C    0.006807   0.011157
   392  C    0.006805   0.011156
   393  C    0.000193  -0.000031
   394  C    0.000197  -0.000027
   395  C   -0.000852  -0.000852
   396  C   -0.000845  -0.000846
   397  C   -0.000524  -0.000524
   398  C   -0.000517  -0.000517
   399  C   -0.000544  -0.000544
   400  C   -0.000538  -0.000538
   401  C   -0.000471  -0.000471
   402  C   -0.000464  -0.000464
   403  C   -0.000486  -0.000486
   404  C   -0.000479  -0.000479
   405  C   -0.000504  -0.000504
   406  C   -0.000497  -0.000497
   407  C   -0.000525  -0.000525
   408  C   -0.000519  -0.000519
   409  C   -0.000468  -0.000468
   410  C   -0.000461  -0.000461
   411  C   -0.000638  -0.000638
   412  C   -0.000632  -0.000632
   413  C   -0.001141  -0.001154
   414  C   -0.001135  -0.001148
   415  C   -0.000907  -0.005021
   416  C   -0.000901  -0.005014
 
 EQQ=  0.00000000000     EQD=  0.00000000000     EDD= 0.422758220570E-01
 EQQ+QD+DD= 0.422758220570E-01
 
 1\1\GINC-CU07\SP\RB3LYP\6-311G(d)\C416H32\WANG\08-Jul-2025\0\\# B3LYP/
 6-311G* Pop=Hirshfeld NOSYMM\\From ../../cnt_8_8-13_opt.out\\0,1\C,0,5
 .105166,2.116987,1.185202\C,0,5.479443,0.719212,1.185171\C,0,5.028998,
 2.079655,3.653267\C,0,5.3948,0.713472,3.653256\C,0,5.044411,2.090613,6
 .118567\C,0,5.413575,0.711738,6.118567\C,0,5.048465,2.090853,8.589401\
 C,0,5.41718,0.713589,8.589401\C,0,5.046924,2.088801,11.053615\C,0,5.41
 4811,0.714614,11.053615\C,0,5.048763,2.092331,13.521387\C,0,5.418169,0
 .712487,13.521386\C,0,5.046949,2.089288,15.989989\C,0,5.415074,0.71421
 9,15.989989\C,0,5.04736,2.089896,18.454254\C,0,5.415735,0.713893,18.45
 4255\C,0,5.04941,2.092586,20.923731\C,0,5.418859,0.712577,20.923731\C,
 0,5.045691,2.087488,23.390238\C,0,5.413095,0.715111,23.390237\C,0,5.03
 757,2.087773,25.854839\C,0,5.406236,0.710767,25.854842\C,0,5.044359,2.
 093433,28.332646\C,0,5.414989,0.709231,28.332658\C,0,5.204098,2.105551
 ,30.753258\C,0,5.55941,0.778574,30.753263\C,0,4.002141,3.936615,-0.009
 337\C,0,4.8386,2.846915,-0.009331\C,0,3.859124,3.864195,2.411255\C,0,4
 .731664,2.727516,2.411259\C,0,3.854998,3.856346,4.889059\C,0,4.723015,
 2.725599,4.889059\C,0,3.862611,3.859174,7.353663\C,0,4.727717,2.732244
 ,7.353661\C,0,3.864104,3.865315,9.820169\C,0,4.734027,2.732119,9.82016
 8\C,0,3.863237,3.862042,12.289645\C,0,4.730635,2.732139,12.289645\C,0,
 3.863088,3.861322,14.753911\C,0,4.729898,2.732187,14.75391\C,0,3.86360
 3,3.864834,17.222513\C,0,4.733423,2.731776,17.222513\C,0,3.863249,3.86
 0864,19.690284\C,0,4.729502,2.732453,19.690285\C,0,3.863891,3.863357,2
 2.154499\C,0,4.732081,2.732415,22.154501\C,0,3.860241,3.8616,24.625331
 \C,0,4.729441,2.729323,24.625335\C,0,3.850195,3.845602,27.090635\C,0,4
 .711369,2.723722,27.090637\C,0,3.906283,3.909257,29.558709\C,0,4.78735
 2,2.761407,29.55871\C,0,2.112719,5.10617,1.185175\C,0,3.365976,4.38285
 9,1.18519\C,0,2.085205,5.025863,3.653257\C,0,3.310136,4.31889,3.653261
 \C,0,2.088341,5.044421,6.118572\C,0,3.324656,4.330924,6.118568\C,0,2.0
 91033,5.047427,8.589403\C,0,3.325914,4.334785,8.589401\C,0,2.091394,5.
 044881,11.053616\C,0,3.32352,4.333839,11.053615\C,0,2.090197,5.048674,
 13.521387\C,0,3.327393,4.334704,13.521386\C,0,2.091067,5.045241,15.989
 989\C,0,3.323985,4.333744,15.989989\C,0,2.090927,5.045962,18.454254\C,
 0,3.324682,4.33398,18.454254\C,0,2.090476,5.049314,20.923729\C,0,3.327
 819,4.335256,20.923731\C,0,2.091455,5.043095,23.390232\C,0,3.321955,4.
 332982,23.390235\C,0,2.085522,5.037604,25.854837\C,0,3.320163,4.325071
 ,25.854836\C,0,2.086371,5.046506,28.332655\C,0,3.327468,4.330231,28.33
 265\C,0,2.190811,5.168163,30.753262\C,0,3.380612,4.481504,30.753253\C,
 0,0.046208,5.613322,-0.009378\C,0,1.408147,5.433785,-0.009376\C,0,-0.0
 0374,5.461057,2.411237\C,0,1.416907,5.273754,2.411233\C,0,-0.00112,5.4
 52529,4.889062\C,0,1.412118,5.266156,4.889062\C,0,0.002247,5.459874,7.
 353666\C,0,1.410728,5.274118,7.353667\C,0,-0.001041,5.465248,9.82017\C
 ,0,1.415273,5.278462,9.82017\C,0,0.000658,5.462322,12.289645\C,0,1.412
 861,5.276079,12.289645\C,0,0.001061,5.46171,14.753911\C,0,1.412306,5.2
 75593,14.753911\C,0,-0.001056,5.46455,17.222513\C,0,1.415088,5.277788,
 17.222513\C,0,0.001499,5.461501,19.690284\C,0,1.411838,5.275503,19.690
 284\C,0,0.000192,5.463714,22.154498\C,0,1.41369,5.2773,22.154497\C,0,-
 0.001138,5.459901,24.62533\C,0,1.414017,5.273274,24.625328\C,0,0.00308
 3,5.441518,27.090642\C,0,1.405229,5.256633,27.090643\C,0,-0.00224,5.52
 6187,29.558722\C,0,1.432348,5.337085,29.558729\C,0,-2.116986,5.105165,
 1.185202\C,0,-0.719211,5.479443,1.185171\C,0,-2.079654,5.028998,3.6532
 67\C,0,-0.713472,5.394799,3.653256\C,0,-2.090612,5.04441,6.118567\C,0,
 -0.711738,5.413575,6.118567\C,0,-2.090852,5.048464,8.589401\C,0,-0.713
 588,5.417179,8.589401\C,0,-2.0888,5.046923,11.053615\C,0,-0.714613,5.4
 1481,11.053615\C,0,-2.09233,5.048762,13.521387\C,0,-0.712486,5.418168,
 13.521387\C,0,-2.089287,5.046949,15.989989\C,0,-0.714218,5.415074,15.9
 89989\C,0,-2.089895,5.04736,18.454254\C,0,-0.713892,5.415735,18.454255
 \C,0,-2.092585,5.049409,20.923731\C,0,-0.712576,5.418858,20.923731\C,0
 ,-2.087487,5.04569,23.390238\C,0,-0.71511,5.413094,23.390237\C,0,-2.08
 7772,5.037569,25.854839\C,0,-0.710766,5.406235,25.854842\C,0,-2.093432
 ,5.044358,28.332646\C,0,-0.70923,5.414989,28.332658\C,0,-2.10555,5.204
 097,30.753258\C,0,-0.778573,5.55941,30.753263\C,0,-3.936614,4.002141,-
 0.009337\C,0,-2.846914,4.8386,-0.009331\C,0,-3.864194,3.859123,2.41125
 5\C,0,-2.727515,4.731663,2.411259\C,0,-3.856345,3.854997,4.889059\C,0,
 -2.725598,4.723014,4.889059\C,0,-3.859173,3.86261,7.353663\C,0,-2.7322
 44,4.727717,7.353661\C,0,-3.865314,3.864104,9.820169\C,0,-2.732118,4.7
 34026,9.820168\C,0,-3.862041,3.863236,12.289645\C,0,-2.732138,4.730634
 ,12.289645\C,0,-3.861321,3.863088,14.753911\C,0,-2.732186,4.729898,14.
 75391\C,0,-3.864833,3.863602,17.222513\C,0,-2.731775,4.733423,17.22251
 3\C,0,-3.860863,3.863249,19.690284\C,0,-2.732452,4.729501,19.690286\C,
 0,-3.863356,3.86389,22.154499\C,0,-2.732414,4.73208,22.154501\C,0,-3.8
 61599,3.86024,24.625331\C,0,-2.729322,4.72944,24.625335\C,0,-3.845601,
 3.850194,27.090635\C,0,-2.723721,4.711368,27.090637\C,0,-3.909257,3.90
 6282,29.558709\C,0,-2.761406,4.787351,29.55871\C,0,-5.106169,2.112718,
 1.185175\C,0,-4.382858,3.365975,1.18519\C,0,-5.025863,2.085204,3.65325
 7\C,0,-4.318889,3.310135,3.653261\C,0,-5.04442,2.088341,6.118572\C,0,-
 4.330924,3.324656,6.118568\C,0,-5.047426,2.091033,8.589403\C,0,-4.3347
 84,3.325913,8.589401\C,0,-5.04488,2.091393,11.053616\C,0,-4.333838,3.3
 2352,11.053615\C,0,-5.048673,2.090197,13.521387\C,0,-4.334703,3.327393
 ,13.521386\C,0,-5.04524,2.091066,15.989989\C,0,-4.333743,3.323984,15.9
 89989\C,0,-5.045961,2.090927,18.454254\C,0,-4.333979,3.324681,18.45425
 5\C,0,-5.049313,2.090475,20.923729\C,0,-4.335255,3.327818,20.923731\C,
 0,-5.043094,2.091454,23.390232\C,0,-4.332981,3.321955,23.390235\C,0,-5
 .037603,2.085522,25.854837\C,0,-4.32507,3.320163,25.854836\C,0,-5.0465
 05,2.08637,28.332655\C,0,-4.33023,3.327468,28.33265\C,0,-5.168162,2.19
 081,30.753262\C,0,-4.481503,3.380611,30.753253\C,0,-5.613321,0.046208,
 -0.009378\C,0,-5.433784,1.408147,-0.009376\C,0,-5.461056,-0.003741,2.4
 11237\C,0,-5.273753,1.416906,2.411233\C,0,-5.452528,-0.001121,4.889062
 \C,0,-5.266155,1.412117,4.889062\C,0,-5.459873,0.002246,7.353666\C,0,-
 5.274118,1.410728,7.353667\C,0,-5.465247,-0.001042,9.82017\C,0,-5.2784
 61,1.415273,9.82017\C,0,-5.462321,0.000657,12.289645\C,0,-5.276078,1.4
 1286,12.289645\C,0,-5.461709,0.001061,14.753911\C,0,-5.275592,1.412305
 ,14.753911\C,0,-5.464549,-0.001057,17.222513\C,0,-5.277787,1.415088,17
 .222513\C,0,-5.4615,0.001498,19.690284\C,0,-5.275502,1.411837,19.69028
 4\C,0,-5.463713,0.000191,22.154498\C,0,-5.277299,1.413689,22.154497\C,
 0,-5.4599,-0.001138,24.62533\C,0,-5.273273,1.414016,24.625328\C,0,-5.4
 41517,0.003082,27.090642\C,0,-5.256632,1.405228,27.090643\C,0,-5.52618
 6,-0.002241,29.558722\C,0,-5.337084,1.432348,29.558729\C,0,-5.105164,-
 2.116987,1.185202\C,0,-5.479442,-0.719212,1.185171\C,0,-5.028997,-2.07
 9655,3.653267\C,0,-5.394798,-0.713472,3.653256\C,0,-5.044409,-2.090613
 ,6.118567\C,0,-5.413574,-0.711738,6.118567\C,0,-5.048463,-2.090853,8.5
 89401\C,0,-5.417178,-0.713589,8.589401\C,0,-5.046922,-2.088801,11.0536
 15\C,0,-5.414809,-0.714614,11.053615\C,0,-5.048761,-2.09233,13.521387\
 C,0,-5.418167,-0.712487,13.521387\C,0,-5.046948,-2.089287,15.989989\C,
 0,-5.415073,-0.714218,15.989989\C,0,-5.047359,-2.089896,18.454254\C,0,
 -5.415734,-0.713893,18.454255\C,0,-5.049408,-2.092586,20.923731\C,0,-5
 .418857,-0.712576,20.923731\C,0,-5.045689,-2.087488,23.390238\C,0,-5.4
 13093,-0.71511,23.390237\C,0,-5.037568,-2.087773,25.854839\C,0,-5.4062
 34,-0.710766,25.854842\C,0,-5.044357,-2.093433,28.332646\C,0,-5.414988
 ,-0.709231,28.332658\C,0,-5.204096,-2.105551,30.753258\C,0,-5.559409,-
 0.778574,30.753263\C,0,-4.00214,-3.936614,-0.009337\C,0,-4.838599,-2.8
 46915,-0.009331\C,0,-3.859123,-3.864195,2.411255\C,0,-4.731663,-2.7275
 16,2.411259\C,0,-3.854996,-3.856345,4.889059\C,0,-4.723013,-2.725598,4
 .889059\C,0,-3.86261,-3.859174,7.353663\C,0,-4.727715,-2.732244,7.3536
 62\C,0,-3.864103,-3.865314,9.820169\C,0,-4.734025,-2.732119,9.820168\C
 ,0,-3.863235,-3.862042,12.289645\C,0,-4.730633,-2.732138,12.289645\C,0
 ,-3.863087,-3.861322,14.753911\C,0,-4.729897,-2.732187,14.75391\C,0,-3
 .863601,-3.864834,17.222513\C,0,-4.733422,-2.731776,17.222513\C,0,-3.8
 63248,-3.860864,19.690284\C,0,-4.7295,-2.732453,19.690285\C,0,-3.86388
 9,-3.863357,22.154499\C,0,-4.732079,-2.732414,22.154501\C,0,-3.860239,
 -3.8616,24.625331\C,0,-4.729439,-2.729323,24.625335\C,0,-3.850193,-3.8
 45602,27.090635\C,0,-4.711367,-2.723722,27.090637\C,0,-3.906281,-3.909
 257,29.558709\C,0,-4.787351,-2.761407,29.55871\C,0,-2.112717,-5.106169
 ,1.185175\C,0,-3.365975,-4.382859,1.18519\C,0,-2.085203,-5.025863,3.65
 3257\C,0,-3.310134,-4.31889,3.653261\C,0,-2.08834,-5.044421,6.118572\C
 ,0,-3.324655,-4.330924,6.118568\C,0,-2.091032,-5.047427,8.589403\C,0,-
 3.325912,-4.334785,8.589401\C,0,-2.091392,-5.044881,11.053616\C,0,-3.3
 23518,-4.333838,11.053615\C,0,-2.090196,-5.048674,13.521387\C,0,-3.327
 392,-4.334704,13.521386\C,0,-2.091065,-5.045241,15.989989\C,0,-3.32398
 3,-4.333744,15.989989\C,0,-2.090926,-5.045962,18.454254\C,0,-3.32468,-
 4.33398,18.454254\C,0,-2.090474,-5.049314,20.923729\C,0,-3.327817,-4.3
 35256,20.923731\C,0,-2.091453,-5.043095,23.390232\C,0,-3.321954,-4.332
 982,23.390235\C,0,-2.085521,-5.037604,25.854837\C,0,-3.320162,-4.32507
 1,25.854836\C,0,-2.086369,-5.046506,28.332655\C,0,-3.327467,-4.330231,
 28.33265\C,0,-2.190809,-5.168163,30.753262\C,0,-3.38061,-4.481504,30.7
 53253\C,0,-0.046207,-5.613322,-0.009378\C,0,-1.408146,-5.433784,-0.009
 376\C,0,0.003742,-5.461056,2.411237\C,0,-1.416905,-5.273754,2.411233\C
 ,0,0.001121,-5.452529,4.889062\C,0,-1.412116,-5.266156,4.889062\C,0,-0
 .002245,-5.459874,7.353666\C,0,-1.410727,-5.274118,7.353667\C,0,0.0010
 43,-5.465248,9.82017\C,0,-1.415272,-5.278462,9.82017\C,0,-0.000656,-5.
 462322,12.289645\C,0,-1.412859,-5.276079,12.289645\C,0,-0.00106,-5.461
 71,14.753911\C,0,-1.412304,-5.275593,14.753911\C,0,0.001058,-5.46455,1
 7.222513\C,0,-1.415087,-5.277788,17.222513\C,0,-0.001497,-5.461501,19.
 690284\C,0,-1.411836,-5.275502,19.690284\C,0,-0.00019,-5.463714,22.154
 498\C,0,-1.413688,-5.2773,22.154497\C,0,0.001139,-5.459901,24.62533\C,
 0,-1.414015,-5.273274,24.625328\C,0,-0.003082,-5.441518,27.090642\C,0,
 -1.405227,-5.256633,27.090643\C,0,0.002242,-5.526187,29.558722\C,0,-1.
 432347,-5.337085,29.558729\C,0,2.116988,-5.105165,1.185202\C,0,0.71921
 3,-5.479442,1.185171\C,0,2.079656,-5.028997,3.653267\C,0,0.713473,-5.3
 94799,3.653256\C,0,2.090613,-5.04441,6.118567\C,0,0.711739,-5.413574,6
 .118567\C,0,2.090854,-5.048464,8.589401\C,0,0.71359,-5.417179,8.589401
 \C,0,2.088802,-5.046923,11.053615\C,0,0.714615,-5.41481,11.053615\C,0,
 2.092331,-5.048762,13.521387\C,0,0.712488,-5.418168,13.521386\C,0,2.08
 9288,-5.046949,15.989989\C,0,0.714219,-5.415073,15.989989\C,0,2.089897
 ,-5.047359,18.454254\C,0,0.713894,-5.415734,18.454255\C,0,2.092587,-5.
 049409,20.923731\C,0,0.712577,-5.418858,20.923731\C,0,2.087489,-5.0456
 9,23.390238\C,0,0.715111,-5.413094,23.390237\C,0,2.087774,-5.037569,25
 .854839\C,0,0.710767,-5.406235,25.854842\C,0,2.093434,-5.044358,28.332
 646\C,0,0.709232,-5.414988,28.332658\C,0,2.105552,-5.204097,30.753258\
 C,0,0.778574,-5.55941,30.753263\C,0,3.936615,-4.002141,-0.009337\C,0,2
 .846916,-4.8386,-0.009331\C,0,3.864196,-3.859123,2.411255\C,0,2.727517
 ,-4.731663,2.411259\C,0,3.856346,-3.854997,4.889059\C,0,2.725599,-4.72
 3014,4.889059\C,0,3.859175,-3.86261,7.353663\C,0,2.732245,-4.727716,7.
 353661\C,0,3.865315,-3.864103,9.820169\C,0,2.732119,-4.734026,9.820168
 \C,0,3.862043,-3.863236,12.289645\C,0,2.732139,-4.730634,12.289645\C,0
 ,3.861323,-3.863088,14.753911\C,0,2.732188,-4.729898,14.75391\C,0,3.86
 4834,-3.863602,17.222513\C,0,2.731777,-4.733422,17.222513\C,0,3.860865
 ,-3.863249,19.690284\C,0,2.732453,-4.729501,19.690285\C,0,3.863358,-3.
 86389,22.154499\C,0,2.732415,-4.73208,22.154501\C,0,3.861601,-3.86024,
 24.625331\C,0,2.729324,-4.72944,24.625335\C,0,3.845603,-3.850194,27.09
 0635\C,0,2.723723,-4.711368,27.090637\C,0,3.909258,-3.906282,29.558709
 \C,0,2.761408,-4.787351,29.55871\C,0,5.10617,-2.112718,1.185175\C,0,4.
 38286,-3.365975,1.18519\C,0,5.025864,-2.085204,3.653257\C,0,4.318891,-
 3.310135,3.653261\C,0,5.044422,-2.088341,6.118572\C,0,4.330925,-3.3246
 55,6.118568\C,0,5.047428,-2.091032,8.589403\C,0,4.334786,-3.325913,8.5
 89401\C,0,5.044882,-2.091393,11.053616\C,0,4.333839,-3.323519,11.05361
 5\C,0,5.048675,-2.090196,13.521387\C,0,4.334705,-3.327392,13.521386\C,
 0,5.045242,-2.091066,15.989989\C,0,4.333745,-3.323984,15.989989\C,0,5.
 045963,-2.090926,18.454254\C,0,4.333981,-3.324681,18.454254\C,0,5.0493
 15,-2.090475,20.923729\C,0,4.335257,-3.327818,20.923731\C,0,5.043096,-
 2.091454,23.390232\C,0,4.332983,-3.321954,23.390235\C,0,5.037605,-2.08
 5521,25.854837\C,0,4.325072,-3.320163,25.854836\C,0,5.046506,-2.08637,
 28.332655\C,0,4.330232,-3.327468,28.33265\C,0,5.168164,-2.19081,30.753
 262\C,0,4.481505,-3.380611,30.753253\C,0,5.613323,-0.046207,-0.009378\
 C,0,5.433785,-1.408147,-0.009376\C,0,5.461057,0.003741,2.411237\C,0,5.
 273755,-1.416906,2.411233\C,0,5.45253,0.001121,4.889062\C,0,5.266157,-
 1.412117,4.889062\C,0,5.459874,-0.002246,7.353666\C,0,5.274119,-1.4107
 28,7.353667\C,0,5.465249,0.001042,9.82017\C,0,5.278463,-1.415273,9.820
 17\C,0,5.462323,-0.000657,12.289645\C,0,5.27608,-1.41286,12.289645\C,0
 ,5.46171,-0.00106,14.753911\C,0,5.275594,-1.412305,14.753911\C,0,5.464
 551,0.001057,17.222513\C,0,5.277789,-1.415087,17.222513\C,0,5.461502,-
 0.001498,19.690284\C,0,5.275503,-1.411837,19.690284\C,0,5.463715,-0.00
 0191,22.154498\C,0,5.277301,-1.413689,22.154497\C,0,5.459902,0.001138,
 24.62533\C,0,5.273275,-1.414016,24.625328\C,0,5.441519,-0.003082,27.09
 0642\C,0,5.256634,-1.405228,27.090643\C,0,5.526188,0.002241,29.558722\
 C,0,5.337086,-1.432348,29.558729\H,0,5.14979,2.628222,31.702419\H,0,5.
 773501,0.298653,31.702416\H,0,3.751871,4.398668,-0.958499\H,0,5.220234
 ,2.485646,-0.958478\H,0,1.782744,5.49922,31.702427\H,0,3.871443,4.2937
 75,31.7024\H,0,-0.457429,5.763165,-0.958549\H,0,1.933437,5.44798,-0.95
 8534\H,0,-2.628221,5.14979,31.702419\H,0,-0.298652,5.7735,31.702416\H,
 0,-4.398667,3.751871,-0.958499\H,0,-2.485645,5.220233,-0.958478\H,0,-5
 .499219,1.782743,31.702427\H,0,-4.293773,3.871442,31.7024\H,0,-5.76316
 4,-0.457429,-0.958549\H,0,-5.447979,1.933436,-0.958534\H,0,-5.149789,-
 2.628222,31.702419\H,0,-5.773499,-0.298653,31.702416\H,0,-3.75187,-4.3
 98668,-0.958499\H,0,-5.220232,-2.485645,-0.958478\H,0,-1.782742,-5.499
 22,31.702427\H,0,-3.871441,-4.293774,31.7024\H,0,0.45743,-5.763165,-0.
 958549\H,0,-1.933435,-5.447979,-0.958534\H,0,2.628223,-5.14979,31.7024
 19\H,0,0.298654,-5.7735,31.702416\H,0,4.398669,-3.751871,-0.958499\H,0
 ,2.485646,-5.220233,-0.958478\H,0,5.499221,-1.782743,31.702427\H,0,4.2
 93775,-3.871442,31.7024\H,0,5.763165,0.45743,-0.958549\H,0,5.44798,-1.
 933436,-0.958534\\Version=ES64L-G16RevB.01\HF=-15877.5218012\RMSD=5.94
 6e-09\Dipole=-0.0000029,0.0000041,-0.0000142\Quadrupole=-156.3074114,-
 156.3073875,312.6147988,-0.0000325,-0.0000777,0.0001096\PG=C02 [X(C416
 H32)]\\@


 IF YOU WANT TO LEARN FROM THE THEORETICAL PHYSICISTS ABOUT THE
 METHODS WHICH THEY USE, I ADVISE YOU TO FOLLOW THIS PRINCIPLE VERY STRICTLY:
 DON'T LISTEN TO THEIR WORDS; PAY ATTENTION, INSTEAD, TO THEIR ACTIONS.
 -- A.EINSTEIN, 1934
 Job cpu time:       2 days 20 hours 40 minutes 24.2 seconds.
 Elapsed time:       0 days  2 hours 27 minutes 36.9 seconds.
 File lengths (MBytes):  RWF=  30756 Int=      0 D2E=      0 Chk=   3295 Scr=      1
 Normal termination of Gaussian 16 at Tue Jul  8 04:52:40 2025.
