 Entering Gaussian System, Link 0=g16
 Initial command:
 /opt/software/g16/l1.exe "/tmp/cnt_5_5-21_sgp-40515.tmp/Gau-3803.inp" -scrdir="/tmp/cnt_5_5-21_sgp-40515.tmp/"
 Entering Link 1 = /opt/software/g16/l1.exe PID=      3804.
  
 Copyright (c) 1988-2017, Gaussian, Inc.  All Rights Reserved.
  
 This is part of the Gaussian(R) 16 program.  It is based on
 the Gaussian(R) 09 system (copyright 2009, Gaussian, Inc.),
 the Gaussian(R) 03 system (copyright 2003, Gaussian, Inc.),
 the Gaussian(R) 98 system (copyright 1998, Gaussian, Inc.),
 the Gaussian(R) 94 system (copyright 1995, Gaussian, Inc.),
 the Gaussian 92(TM) system (copyright 1992, Gaussian, Inc.),
 the Gaussian 90(TM) system (copyright 1990, Gaussian, Inc.),
 the Gaussian 88(TM) system (copyright 1988, Gaussian, Inc.),
 the Gaussian 86(TM) system (copyright 1986, Carnegie Mellon
 University), and the Gaussian 82(TM) system (copyright 1983,
 Carnegie Mellon University). Gaussian is a federally registered
 trademark of Gaussian, Inc.
  
 This software contains proprietary and confidential information,
 including trade secrets, belonging to Gaussian, Inc.
  
 This software is provided under written license and may be
 used, copied, transmitted, or stored only in accord with that
 written license.
  
 The following legend is applicable only to US Government
 contracts under FAR:
  
                    RESTRICTED RIGHTS LEGEND
  
 Use, reproduction and disclosure by the US Government is
 subject to restrictions as set forth in subparagraphs (a)
 and (c) of the Commercial Computer Software - Restricted
 Rights clause in FAR 52.227-19.
  
 Gaussian, Inc.
 340 Quinnipiac St., Bldg. 40, Wallingford CT 06492
  
  
 ---------------------------------------------------------------
 Warning -- This program may not be used in any manner that
 competes with the business of Gaussian, Inc. or will provide
 assistance to any competitor of Gaussian, Inc.  The licensee
 of this program is prohibited from giving any competitor of
 Gaussian, Inc. access to this program.  By using this program,
 the user acknowledges that Gaussian, Inc. is engaged in the
 business of creating and licensing software in the field of
 computational chemistry and represents and warrants to the
 licensee that it is not a competitor of Gaussian, Inc. and that
 it will not use this program in any manner prohibited above.
 ---------------------------------------------------------------
  

 Cite this work as:
 Gaussian 16, Revision B.01,
 M. J. Frisch, G. W. Trucks, H. B. Schlegel, G. E. Scuseria, 
 M. A. Robb, J. R. Cheeseman, G. Scalmani, V. Barone, 
 G. A. Petersson, H. Nakatsuji, X. Li, M. Caricato, A. V. Marenich, 
 J. Bloino, B. G. Janesko, R. Gomperts, B. Mennucci, H. P. Hratchian, 
 J. V. Ortiz, A. F. Izmaylov, J. L. Sonnenberg, D. Williams-Young, 
 F. Ding, F. Lipparini, F. Egidi, J. Goings, B. Peng, A. Petrone, 
 T. Henderson, D. Ranasinghe, V. G. Zakrzewski, J. Gao, N. Rega, 
 G. Zheng, W. Liang, M. Hada, M. Ehara, K. Toyota, R. Fukuda, 
 J. Hasegawa, M. Ishida, T. Nakajima, Y. Honda, O. Kitao, H. Nakai, 
 T. Vreven, K. Throssell, J. A. Montgomery, Jr., J. E. Peralta, 
 F. Ogliaro, M. J. Bearpark, J. J. Heyd, E. N. Brothers, K. N. Kudin, 
 V. N. Staroverov, T. A. Keith, R. Kobayashi, J. Normand, 
 K. Raghavachari, A. P. Rendell, J. C. Burant, S. S. Iyengar, 
 J. Tomasi, M. Cossi, J. M. Millam, M. Klene, C. Adamo, R. Cammi, 
 J. W. Ochterski, R. L. Martin, K. Morokuma, O. Farkas, 
 J. B. Foresman, and D. J. Fox, Gaussian, Inc., Wallingford CT, 2016.
 
 ******************************************
 Gaussian 16:  ES64L-G16RevB.01 20-Dec-2017
                 8-Jul-2025 
 ******************************************
 %nproc=28
 Will use up to   28 processors via shared memory.
 ------------------------------------
 # B3LYP/6-311G* Pop=Hirshfeld NOSYMM
 ------------------------------------
 1/38=1,172=1/1;
 2/12=2,15=1,17=6,18=5,40=1/2;
 3/5=4,6=6,7=1,11=2,25=1,30=1,74=-5/1,2,3;
 4//1;
 5/5=2,38=5/2;
 6/7=2,8=2,9=2,10=2,28=1,79=1/1;
 99/5=1,9=1/99;
 -----------------------------
 From ../../cnt_5_5-21_opt.out
 -----------------------------
 Symbolic Z-matrix:
 Charge =  0 Multiplicity = 1
 6                     2.81174   2.04331   1.16551 
 6                     3.4005    0.72198   1.16558 
 6                     2.76949   2.00742   3.63108 
 6                     3.34549   0.71463   3.63111 
 6                     2.78618   2.02628   6.09565 
 6                     3.3706    0.71437   6.09567 
 6                     2.78295   2.02058   8.56746 
 6                     3.36421   0.71574   8.56747 
 6                     2.78165   2.01846   11.02773 
 6                     3.36177   0.71616   11.02774 
 6                     2.7861    2.0258    13.4965 
 6                     3.3702    0.71452   13.4965 
 6                     2.78152   2.01829   15.96427 
 6                     3.36156   0.71612   15.96427 
 6                     2.78339   2.02121   18.42573 
 6                     3.36498   0.71553   18.42573 
 6                     2.78532   2.02442   20.8961 
 6                     3.36865   0.71481   20.8961 
 6                     2.78107   2.01749   23.36086 
 6                     3.36068   0.71629   23.36087 
 6                     2.78476   2.02349   25.82435 
 6                     3.36759   0.71503   25.82435 
 6                     2.78411   2.02242   28.29503 
 6                     3.36635   0.71528   28.29503 
 6                     2.78122   2.01778   30.7574 
 6                     3.36097   0.71626   30.7574 
 6                     2.78578   2.02523   33.2236 
 6                     3.36954   0.71468   33.2236 
 6                     2.78257   2.01995   35.69334 
 6                     3.36347   0.71587   35.69334 
 6                     2.78194   2.01915   38.15411 
 6                     3.36244   0.71597   38.1541 
 6                     2.78642   2.02637   40.62366 
 6                     3.37078   0.71451   40.62365 
 6                     2.78097   2.01689   43.09087 
 6                     3.36011   0.71684   43.09086 
 6                     2.7809    2.02043   45.55068 
 6                     3.36274   0.71444   45.55066 
 6                     2.77514   2.02278   48.03048 
 6                     3.3607    0.70856   48.03045 
 6                     2.89379   2.03851   50.45351 
 6                     3.45162   0.78614   50.4535 
 6                     1.14234   3.34873  -0.0336 
 6                     2.32995   2.66375  -0.03359 
 6                     1.05574   3.26656   2.38946 
 6                     2.30208   2.5477    2.38949 
 6                     1.06186   3.26814   4.86928 
 6                     2.30037   2.55377   4.8693 
 6                     1.06402   3.26533   7.32911 
 6                     2.29689   2.55419   7.32912 
 6                     1.06287   3.27617   9.79633 
 6                     2.3069    2.55858   9.79633 
 6                     1.0635    3.26771   12.26588 
 6                     2.29931   2.55487   12.26588 
 6                     1.06354   3.26873   14.72665 
 6                     2.3002    2.55539   14.72665 
 6                     1.06302   3.27486   17.19639 
 6                     2.3058    2.55799   17.19639 
 6                     1.06371   3.26619   19.66258 
 6                     2.29795   2.55424   19.66258 
 6                     1.06332   3.27163   22.12496 
 6                     2.30287   2.55662   22.12496 
 6                     1.06321   3.27288   24.59564 
 6                     2.30401   2.55715   24.59564 
 6                     1.06375   3.26589   27.05912 
 6                     2.29767   2.55412   27.05913 
 6                     1.06311   3.27398   29.52389 
 6                     2.30499   2.55763   29.52389 
 6                     1.06343   3.27027   31.99425 
 6                     2.3016    2.55606   31.99425 
 6                     1.06364   3.26683   34.45572 
 6                     2.29849   2.55454   34.45572 
 6                     1.06293   3.2756    36.92349 
 6                     2.3064    2.55833   36.92349 
 6                     1.06364   3.26708   39.39226 
 6                     2.29862   2.55471   39.39226 
 6                     1.06344   3.26955   41.85255 
 6                     2.30083   2.5558    41.85254 
 6                     1.06269   3.27603   44.32437 
 6                     2.30678   2.55843   44.32435 
 6                     1.06025   3.251     46.78897 
 6                     2.28626   2.54381   46.78893 
 6                     1.07326   3.30458   49.25455 
 6                     2.3264    2.58193   49.25446 
 6                    -1.07461   3.30381   1.16545 
 6                     0.364     3.45512   1.16546 
 6                    -1.05349   3.25272   3.63105 
 6                     0.35404   3.40079   3.63105 
 6                    -1.0662    3.27436   6.09565 
 6                     0.36208   3.42463   6.09564 
 6                    -1.06177   3.26954   8.56746 
 6                     0.35882   3.41901   8.56745 
 6                    -1.06015   3.26765   11.02774 
 6                     0.35768   3.41683   11.02773 
 6                    -1.06573   3.27411   13.49651 
 6                     0.36185   3.4243    13.4965 
 6                    -1.06001   3.26744   15.96427 
 6                     0.35767   3.4166    15.96427 
 6                    -1.0622    3.27011   18.42573 
 6                     0.35929   3.41965   18.42573 
 6                    -1.06465   3.27292   20.89609 
 6                     0.36111   3.42291   20.89609 
 6                    -1.05938   3.26677   23.36086 
 6                     0.35725   3.41581   23.36086 
 6                    -1.06392   3.27211   25.82435 
 6                     0.36059   3.42197   25.82435 
 6                    -1.0631    3.27117   28.29502 
 6                     0.35997   3.42088   28.29502 
 6                    -1.05959   3.26702   30.7574 
 6                     0.35739   3.41609   30.7574 
 6                    -1.06526   3.27363   33.2236 
 6                     0.36154   3.42373   33.2236 
 6                    -1.06123   3.26899   35.69334 
 6                     0.35854   3.41836   35.69334 
 6                    -1.06066   3.26816   38.15411 
 6                     0.35812   3.41743   38.15411 
 6                    -1.06614   3.27463   40.62366 
 6                     0.36208   3.4249    40.62366 
 6                    -1.05885   3.26658   43.09088 
 6                     0.35656   3.4155    43.09089 
 6                    -1.06226   3.26761   45.55072 
 6                     0.3596    3.41719   45.55072 
 6                    -1.06634   3.26275   48.03057 
 6                     0.36451   3.41327   48.03056 
 6                    -1.04459   3.37972   50.4537 
 6                     0.31888   3.52312   50.4537 
 6                    -2.83319   2.1211   -0.03354 
 6                    -1.81387   3.03794  -0.03359 
 6                    -2.78169   2.01336   2.38952 
 6                    -1.71197   2.97553   2.38948 
 6                    -2.78116   2.01962   4.86933 
 6                    -1.71818   2.97578   4.8693 
 6                    -2.77778   2.02077   7.32914 
 6                    -1.71963   2.97258   7.32913 
 6                    -2.78841   2.02299   9.79635 
 6                    -1.72068   2.98342   9.79634 
 6                    -2.78017   2.02096   12.26589 
 6                    -1.7195    2.97504   12.26589 
 6                    -2.78112   2.0213    14.72665 
 6                    -1.7197    2.97604   14.72666 
 6                    -2.78712   2.02271   17.19639 
 6                    -1.72044   2.98216   17.19639 
 6                    -2.77865   2.02069   19.66259 
 6                    -1.71931   2.97354   19.66258 
 6                    -2.78395   2.022     22.12496 
 6                    -1.72004   2.97895   22.12497 
 6                    -2.78516   2.02229   24.59564 
 6                    -1.72018   2.9802    24.59564 
 6                    -2.77835   2.02065   27.05913 
 6                    -1.71927   2.97325   27.05912 
 6                    -2.78623   2.02254   29.52389 
 6                    -1.72032   2.98129   29.52389 
 6                    -2.7826    2.0217    31.99426 
 6                    -1.71988   2.97759   31.99425 
 6                    -2.77926   2.02084   34.45572 
 6                    -1.71939   2.97417   34.45572 
 6                    -2.7878    2.02288   36.92349 
 6                    -1.72054   2.98287   36.92349 
 6                    -2.77948   2.02094   39.39226 
 6                    -1.71952   2.97439   39.39225 
 6                    -2.7819    2.02153   41.85253 
 6                    -1.71988   2.97684   41.85254 
 6                    -2.78833   2.02285   44.32433 
 6                    -1.72056   2.98333   44.32435 
 6                    -2.76533   2.01282   46.78891 
 6                    -1.71309   2.95936   46.78896 
 6                    -2.81262   2.04178   49.25446 
 6                    -1.737     3.00905   49.25455 
 6                    -3.4763   -0.00093   1.16558 
 6                    -3.17537   1.41401   1.16557 
 6                    -3.42099   0.00333   3.63111 
 6                    -3.1266    1.38771   3.6311 
 6                    -3.44548  -0.00211   6.09568 
 6                    -3.14675   1.40271   6.09568 
 6                    -3.43949   0.00059   8.56747 
 6                    -3.14236   1.39783   8.56747 
 6                    -3.43718   0.00153   11.02774 
 6                    -3.14061   1.39604   11.02774 
 6                    -3.44509  -0.00178   13.49651 
 6                    -3.14646   1.40233   13.49651 
 6                    -3.43696   0.00159   15.96427 
 6                    -3.1404    1.39595   15.96427 
 6                    -3.44019   0.00033   18.42574 
 6                    -3.14282   1.39845   18.42574 
 6                    -3.44363  -0.00111   20.8961 
 6                    -3.14537   1.4012    20.8961 
 6                    -3.43613   0.002     23.36087 
 6                    -3.13977   1.39531   23.36086 
 6                    -3.44263  -0.00067   25.82436 
 6                    -3.14462   1.40041   25.82435 
 6                    -3.44147  -0.00018   28.29503 
 6                    -3.14377   1.3995    28.29502 
 6                    -3.43641   0.00188   30.75741 
 6                    -3.13999   1.39555   30.7574 
 6                    -3.44446  -0.00145   33.2236 
 6                    -3.14599   1.40188   33.2236 
 6                    -3.43877   0.00094   35.69334 
 6                    -3.14177   1.39735   35.69334 
 6                    -3.43779   0.00123   38.15411 
 6                    -3.14101   1.39667   38.15411 
 6                    -3.44565  -0.00197   40.62365 
 6                    -3.14692   1.40278   40.62365 
 6                    -3.43569   0.00249   43.09086 
 6                    -3.13966   1.39461   43.09086 
 6                    -3.43778  -0.00041   45.55066 
 6                    -3.14039   1.39808   45.55067 
 6                    -3.43458  -0.00577   48.03044 
 6                    -3.1353    1.40156   48.03045 
 6                    -3.5399    0.05123   50.45345 
 6                    -3.25468   1.39222   50.45347 
 6                    -2.89379  -2.03851  -0.03351 
 6                    -3.45162  -0.78614  -0.03351 
 6                    -2.77514  -2.02278   2.38952 
 6                    -3.3607   -0.70856   2.38955 
 6                    -2.7809   -2.02043   4.86931 
 6                    -3.36274  -0.71444   4.86934 
 6                    -2.78097  -2.01689   7.32912 
 6                    -3.36011  -0.71684   7.32914 
 6                    -2.78642  -2.02637   9.79633 
 6                    -3.37078  -0.71451   9.79634 
 6                    -2.78194  -2.01915   12.26589 
 6                    -3.36244  -0.71597   12.26589 
 6                    -2.78257  -2.01995   14.72665 
 6                    -3.36347  -0.71587   14.72665 
 6                    -2.78577  -2.02523   17.19639 
 6                    -3.36954  -0.71468   17.19639 
 6                    -2.78122  -2.01778   19.66259 
 6                    -3.36097  -0.71626   19.66259 
 6                    -2.78411  -2.02242   22.12497 
 6                    -3.36635  -0.71528   22.12497 
 6                    -2.78476  -2.02349   24.59565 
 6                    -3.36759  -0.71503   24.59565 
 6                    -2.78107  -2.01749   27.05913 
 6                    -3.36068  -0.71629   27.05913 
 6                    -2.78532  -2.02442   29.5239 
 6                    -3.36865  -0.71481   29.5239 
 6                    -2.78339  -2.02121   31.99426 
 6                    -3.36498  -0.71553   31.99426 
 6                    -2.78152  -2.01829   34.45573 
 6                    -3.36156  -0.71612   34.45573 
 6                    -2.7861   -2.0258    36.9235 
 6                    -3.3702   -0.71452   36.92349 
 6                    -2.78165  -2.01846   39.39227 
 6                    -3.36177  -0.71616   39.39226 
 6                    -2.78295  -2.02058   41.85254 
 6                    -3.36421  -0.71574   41.85253 
 6                    -2.78618  -2.02628   44.32435 
 6                    -3.3706   -0.71437   44.32433 
 6                    -2.76949  -2.00742   46.78892 
 6                    -3.34549  -0.71463   46.78889 
 6                    -2.81174  -2.04331   49.25449 
 6                    -3.4005   -0.72198   49.25442 
 6                    -1.07326  -3.30458   1.16545 
 6                    -2.3264   -2.58193   1.16553 
 6                    -1.06025  -3.251     3.63103 
 6                    -2.28626  -2.54381   3.63107 
 6                    -1.06269  -3.27603   6.09563 
 6                    -2.30678  -2.55843   6.09565 
 6                    -1.06344  -3.26955   8.56745 
 6                    -2.30083  -2.5558    8.56746 
 6                    -1.06364  -3.26708   11.02773 
 6                    -2.29862  -2.55471   11.02774 
 6                    -1.06293  -3.2756    13.49651 
 6                    -2.3064   -2.55833   13.49651 
 6                    -1.06364  -3.26683   15.96427 
 6                    -2.29849  -2.55454   15.96427 
 6                    -1.06343  -3.27027   18.42574 
 6                    -2.3016   -2.55606   18.42574 
 6                    -1.06311  -3.27398   20.8961 
 6                    -2.30499  -2.55763   20.8961 
 6                    -1.06375  -3.26589   23.36087 
 6                    -2.29767  -2.55412   23.36087 
 6                    -1.06321  -3.27288   25.82436 
 6                    -2.30401  -2.55715   25.82436 
 6                    -1.06332  -3.27163   28.29503 
 6                    -2.30287  -2.55662   28.29503 
 6                    -1.06371  -3.26619   30.75741 
 6                    -2.29795  -2.55424   30.75741 
 6                    -1.06302  -3.27486   33.22361 
 6                    -2.3058   -2.55799   33.22361 
 6                    -1.06353  -3.26873   35.69335 
 6                    -2.3002   -2.55539   35.69335 
 6                    -1.0635   -3.26771   38.15411 
 6                    -2.29931  -2.55487   38.15411 
 6                    -1.06287  -3.27617   40.62367 
 6                    -2.3069   -2.55858   40.62366 
 6                    -1.06402  -3.26533   43.09088 
 6                    -2.29689  -2.55419   43.09088 
 6                    -1.06186  -3.26814   45.55071 
 6                    -2.30037  -2.55377   45.5507 
 6                    -1.05574  -3.26656   48.03053 
 6                    -2.30208  -2.5477    48.03051 
 6                    -1.14234  -3.34873   50.4536 
 6                    -2.32995  -2.66375   50.45358 
 6                     1.04459  -3.37972  -0.03371 
 6                    -0.31888  -3.52312  -0.03371 
 6                     1.06634  -3.26275   2.38943 
 6                    -0.36451  -3.41327   2.38944 
 6                     1.06226  -3.26761   4.86928 
 6                    -0.3596   -3.41719   4.86928 
 6                     1.05885  -3.26658   7.32911 
 6                    -0.35656  -3.4155    7.32911 
 6                     1.06614  -3.27463   9.79634 
 6                    -0.36208  -3.4249    9.79633 
 6                     1.06066  -3.26816   12.26589 
 6                    -0.35812  -3.41743   12.26589 
 6                     1.06123  -3.26899   14.72666 
 6                    -0.35854  -3.41836   14.72666 
 6                     1.06526  -3.27363   17.1964 
 6                    -0.36154  -3.42373   17.1964 
 6                     1.05959  -3.26702   19.66259 
 6                    -0.35739  -3.41609   19.66259 
 6                     1.06311  -3.27117   22.12497 
 6                    -0.35997  -3.42088   22.12498 
 6                     1.06392  -3.27211   24.59565 
 6                    -0.36059  -3.42197   24.59565 
 6                     1.05938  -3.26677   27.05914 
 6                    -0.35725  -3.41581   27.05914 
 6                     1.06465  -3.27292   29.5239 
 6                    -0.36111  -3.42291   29.5239 
 6                     1.0622   -3.27011   31.99426 
 6                    -0.35929  -3.41965   31.99426 
 6                     1.06001  -3.26744   34.45573 
 6                    -0.35767  -3.4166    34.45573 
 6                     1.06573  -3.2741    36.92349 
 6                    -0.36185  -3.4243    36.92349 
 6                     1.06015  -3.26765   39.39226 
 6                    -0.35768  -3.41683   39.39226 
 6                     1.06177  -3.26954   41.85254 
 6                    -0.35882  -3.41901   41.85254 
 6                     1.06621  -3.27436   44.32435 
 6                    -0.36208  -3.42463   44.32435 
 6                     1.05349  -3.25272   46.78895 
 6                    -0.35404  -3.40079   46.78895 
 6                     1.07461  -3.30381   49.25454 
 6                    -0.364    -3.45512   49.25453 
 6                     2.81262  -2.04178   1.16554 
 6                     1.737    -3.00905   1.16545 
 6                     2.76533  -2.01282   3.63108 
 6                     1.71309  -2.95936   3.63104 
 6                     2.78833  -2.02285   6.09566 
 6                     1.72056  -2.98333   6.09565 
 6                     2.7819   -2.02153   8.56747 
 6                     1.71988  -2.97684   8.56746 
 6                     2.77948  -2.02094   11.02774 
 6                     1.71952  -2.97439   11.02774 
 6                     2.7878   -2.02288   13.49651 
 6                     1.72054  -2.98287   13.49651 
 6                     2.77926  -2.02084   15.96428 
 6                     1.71939  -2.97417   15.96428 
 6                     2.7826   -2.0217    18.42574 
 6                     1.71988  -2.97759   18.42574 
 6                     2.78623  -2.02254   20.8961 
 6                     1.72032  -2.98129   20.8961 
 6                     2.77835  -2.02065   23.36087 
 6                     1.71927  -2.97325   23.36087 
 6                     2.78516  -2.02229   25.82436 
 6                     1.72018  -2.9802    25.82436 
 6                     2.78395  -2.022     28.29503 
 6                     1.72004  -2.97895   28.29503 
 6                     2.77865  -2.02069   30.75741 
 6                     1.71931  -2.97354   30.75741 
 6                     2.78712  -2.02271   33.2236 
 6                     1.72044  -2.98216   33.2236 
 6                     2.78112  -2.0213    35.69334 
 6                     1.7197   -2.97604   35.69334 
 6                     2.78017  -2.02096   38.15411 
 6                     1.7195   -2.97504   38.15411 
 6                     2.78841  -2.02299   40.62365 
 6                     1.72068  -2.98342   40.62365 
 6                     2.77778  -2.02077   43.09086 
 6                     1.71963  -2.97258   43.09087 
 6                     2.78116  -2.01962   45.55067 
 6                     1.71818  -2.97578   45.5507 
 6                     2.78169  -2.01336   48.03048 
 6                     1.71197  -2.97553   48.03052 
 6                     2.83319  -2.1211    50.45354 
 6                     1.81387  -3.03794   50.45359 
 6                     3.5399   -0.05123  -0.03346 
 6                     3.25468  -1.39222  -0.03347 
 6                     3.43458   0.00577   2.38955 
 6                     3.1353   -1.40156   2.38955 
 6                     3.43778   0.00041   4.86933 
 6                     3.14039  -1.39808   4.86932 
 6                     3.43569  -0.00249   7.32914 
 6                     3.13966  -1.39461   7.32914 
 6                     3.44565   0.00197   9.79634 
 6                     3.14692  -1.40278   9.79634 
 6                     3.43779  -0.00123   12.26589 
 6                     3.14101  -1.39667   12.26589 
 6                     3.43877  -0.00094   14.72665 
 6                     3.14177  -1.39735   14.72666 
 6                     3.44446   0.00145   17.19639 
 6                     3.14599  -1.40188   17.19639 
 6                     3.43641  -0.00188   19.66259 
 6                     3.13999  -1.39555   19.66259 
 6                     3.44147   0.00018   22.12497 
 6                     3.14377  -1.3995    22.12497 
 6                     3.44263   0.00067   24.59564 
 6                     3.14463  -1.40041   24.59564 
 6                     3.43613  -0.002     27.05913 
 6                     3.13978  -1.39531   27.05913 
 6                     3.44363   0.00111   29.5239 
 6                     3.14537  -1.4012    29.5239 
 6                     3.44019  -0.00033   31.99426 
 6                     3.14282  -1.39845   31.99426 
 6                     3.43696  -0.00159   34.45572 
 6                     3.1404   -1.39595   34.45572 
 6                     3.44509   0.00178   36.92349 
 6                     3.14646  -1.40233   36.92349 
 6                     3.43718  -0.00153   39.39225 
 6                     3.14061  -1.39604   39.39225 
 6                     3.43949  -0.00059   41.85253 
 6                     3.14236  -1.39783   41.85252 
 6                     3.44548   0.00211   44.32432 
 6                     3.14675  -1.40271   44.32432 
 6                     3.42099  -0.00333   46.78888 
 6                     3.1266   -1.38771   46.78889 
 6                     3.4763    0.00093   49.25442 
 6                     3.17537  -1.41401   49.25442 
 1                     2.75686   2.55311   51.39953 
 1                     3.74255   0.34015   51.39953 
 1                     0.72892   3.68423  -0.97967 
 1                     2.82738   2.47388  -0.97965 
 1                    -1.57621   3.40799   51.39979 
 1                     0.83298   3.6613    51.39981 
 1                    -3.2804    1.83201  -0.97956 
 1                    -1.47933   3.4521   -0.97968 
 1                    -3.73191  -0.44549   51.39946 
 1                    -3.22784   1.92402   51.39951 
 1                    -2.75686  -2.55311  -0.97953 
 1                    -3.74255  -0.34015  -0.97953 
 1                    -0.72892  -3.68423   51.39967 
 1                    -2.82738  -2.47388   51.39965 
 1                     1.57621  -3.40799  -0.9798 
 1                    -0.83298  -3.6613   -0.97982 
 1                     3.2804   -1.83201   51.39956 
 1                     1.47933  -3.4521    51.39967 
 1                     3.73191   0.44549  -0.97946 
 1                     3.22784  -1.92402  -0.97951 
 
 Symmetry turned off by external request.
 Stoichiometry    C420H20
 Framework group  C1[X(C420H20)]
 Deg. of freedom  1314
 Full point group                 C1      NOp   1
                          Input orientation:                          
 ---------------------------------------------------------------------
 Center     Atomic      Atomic             Coordinates (Angstroms)
 Number     Number       Type             X           Y           Z
 ---------------------------------------------------------------------
      1          6           0        2.811742    2.043313    1.165510
      2          6           0        3.400496    0.721978    1.165580
      3          6           0        2.769493    2.007417    3.631075
      4          6           0        3.345490    0.714634    3.631109
      5          6           0        2.786179    2.026278    6.095649
      6          6           0        3.370602    0.714368    6.095669
      7          6           0        2.782947    2.020583    8.567457
      8          6           0        3.364205    0.715742    8.567468
      9          6           0        2.781652    2.018463   11.027730
     10          6           0        3.361767    0.716162   11.027736
     11          6           0        2.786104    2.025804   13.496500
     12          6           0        3.370196    0.714521   13.496504
     13          6           0        2.781517    2.018290   15.964268
     14          6           0        3.361561    0.716118   15.964271
     15          6           0        2.783385    2.021213   18.425731
     16          6           0        3.364982    0.715531   18.425733
     17          6           0        2.785320    2.024419   20.896096
     18          6           0        3.368655    0.714813   20.896099
     19          6           0        2.781072    2.017494   23.360863
     20          6           0        3.360676    0.716294   23.360865
     21          6           0        2.784760    2.023487   25.824349
     22          6           0        3.367585    0.715028   25.824351
     23          6           0        2.784112    2.022419   28.295026
     24          6           0        3.366353    0.715277   28.295028
     25          6           0        2.781221    2.017781   30.757403
     26          6           0        3.360972    0.716258   30.757405
     27          6           0        2.785775    2.025235   33.223600
     28          6           0        3.369537    0.714678   33.223600
     29          6           0        2.782569    2.019954   35.693344
     30          6           0        3.363466    0.715866   35.693343
     31          6           0        2.781941    2.019152   38.154109
     32          6           0        3.362443    0.715974   38.154104
     33          6           0        2.786417    2.026369   40.623662
     34          6           0        3.370783    0.714506   40.623653
     35          6           0        2.780965    2.016891   43.090874
     36          6           0        3.360113    0.716837   43.090859
     37          6           0        2.780904    2.020433   45.550683
     38          6           0        3.362739    0.714443   45.550659
     39          6           0        2.775144    2.022784   48.030475
     40          6           0        3.360701    0.708563   48.030448
     41          6           0        2.893787    2.038507   50.453510
     42          6           0        3.451618    0.786144   50.453501
     43          6           0        1.142335    3.348730   -0.033604
     44          6           0        2.329955    2.663750   -0.033585
     45          6           0        1.055739    3.266556    2.389463
     46          6           0        2.302077    2.547695    2.389488
     47          6           0        1.061860    3.268135    4.869282
     48          6           0        2.300368    2.553767    4.869297
     49          6           0        1.064024    3.265329    7.329113
     50          6           0        2.296893    2.554195    7.329119
     51          6           0        1.062871    3.276165    9.796330
     52          6           0        2.306905    2.558584    9.796333
     53          6           0        1.063499    3.267713   12.265880
     54          6           0        2.299307    2.554870   12.265881
     55          6           0        1.063535    3.268726   14.726650
     56          6           0        2.300199    2.555386   14.726651
     57          6           0        1.063017    3.274864   17.196388
     58          6           0        2.305803    2.557993   17.196389
     59          6           0        1.063715    3.266185   19.662584
     60          6           0        2.297947    2.554243   19.662585
     61          6           0        1.063321    3.271631   22.124964
     62          6           0        2.302870    2.556621   22.124965
     63          6           0        1.063212    3.272881   24.595635
     64          6           0        2.304008    2.557152   24.595636
     65          6           0        1.063750    3.265892   27.059124
     66          6           0        2.297674    2.554125   27.059125
     67          6           0        1.063110    3.273981   29.523892
     68          6           0        2.304992    2.557627   29.523893
     69          6           0        1.063429    3.270273   31.994253
     70          6           0        2.301599    2.556062   31.994254
     71          6           0        1.063636    3.266831   34.455722
     72          6           0        2.298485    2.554536   34.455722
     73          6           0        1.062926    3.275595   36.923490
     74          6           0        2.306403    2.558328   36.923489
     75          6           0        1.063642    3.267076   39.392262
     76          6           0        2.298621    2.554711   39.392259
     77          6           0        1.063438    3.269555   41.852549
     78          6           0        2.300829    2.555803   41.852541
     79          6           0        1.062688    3.276034   44.324365
     80          6           0        2.306781    2.558428   44.324345
     81          6           0        1.060253    3.250996   46.788967
     82          6           0        2.286264    2.543810   46.788927
     83          6           0        1.073255    3.304576   49.254550
     84          6           0        2.326403    2.581928   49.254461
     85          6           0       -1.074612    3.303811    1.165453
     86          6           0        0.364002    3.455116    1.165463
     87          6           0       -1.053491    3.252721    3.631048
     88          6           0        0.354044    3.400793    3.631045
     89          6           0       -1.066204    3.274363    6.095648
     90          6           0        0.362075    3.424626    6.095644
     91          6           0       -1.061773    3.269544    8.567457
     92          6           0        0.358821    3.419011    8.567453
     93          6           0       -1.060146    3.267651   11.027738
     94          6           0        0.357682    3.416826   11.027735
     95          6           0       -1.065731    3.274105   13.496505
     96          6           0        0.361849    3.424296   13.496503
     97          6           0       -1.060010    3.267444   15.964269
     98          6           0        0.357673    3.416597   15.964268
     99          6           0       -1.062204    3.270106   18.425735
    100          6           0        0.359290    3.419653   18.425734
    101          6           0       -1.064645    3.272921   20.896094
    102          6           0        0.361111    3.422910   20.896094
    103          6           0       -1.059379    3.266775   23.360861
    104          6           0        0.357247    3.415808   23.360861
    105          6           0       -1.063924    3.272110   25.824349
    106          6           0        0.360585    3.421967   25.824349
    107          6           0       -1.063105    3.271175   28.295020
    108          6           0        0.359974    3.420883   28.295020
    109          6           0       -1.059590    3.267020   30.757401
    110          6           0        0.357388    3.416094   30.757401
    111          6           0       -1.065255    3.273629   33.223598
    112          6           0        0.361535    3.423731   33.223597
    113          6           0       -1.061230    3.268986   35.693338
    114          6           0        0.358536    3.418358   35.693338
    115          6           0       -1.060663    3.268159   38.154109
    116          6           0        0.358117    3.417434   38.154109
    117          6           0       -1.066139    3.274634   40.623661
    118          6           0        0.362078    3.424896   40.623663
    119          6           0       -1.058845    3.266582   43.090882
    120          6           0        0.356555    3.415501   43.090885
    121          6           0       -1.062263    3.267607   45.550720
    122          6           0        0.359603    3.417191   45.550721
    123          6           0       -1.066342    3.262749   48.030568
    124          6           0        0.364510    3.413271   48.030560
    125          6           0       -1.044587    3.379715   50.453704
    126          6           0        0.318880    3.523120   50.453703
    127          6           0       -2.833194    2.121099   -0.033539
    128          6           0       -1.813869    3.037941   -0.033592
    129          6           0       -2.781690    2.013357    2.389517
    130          6           0       -1.711967    2.975531    2.389479
    131          6           0       -2.781158    2.019619    4.869326
    132          6           0       -1.718184    2.975780    4.869299
    133          6           0       -2.777776    2.020771    7.329137
    134          6           0       -1.719634    2.972584    7.329129
    135          6           0       -2.788407    2.022991    9.796345
    136          6           0       -1.720679    2.983424    9.796342
    137          6           0       -2.780171    2.020964   12.265891
    138          6           0       -1.719495    2.975044   12.265887
    139          6           0       -2.781122    2.021304   14.726654
    140          6           0       -1.719702    2.976037   14.726656
    141          6           0       -2.787116    2.022705   17.196392
    142          6           0       -1.720438    2.982159   17.196391
    143          6           0       -2.778652    2.020692   19.662587
    144          6           0       -1.719307    2.973540   19.662585
    145          6           0       -2.783945    2.022001   22.124965
    146          6           0       -1.720036    2.978950   22.124966
    147          6           0       -2.785162    2.022287   24.595638
    148          6           0       -1.720183    2.980197   24.595635
    149          6           0       -2.778351    2.020648   27.059126
    150          6           0       -1.719266    2.973254   27.059124
    151          6           0       -2.786228    2.022538   29.523894
    152          6           0       -1.720318    2.981289   29.523893
    153          6           0       -2.782598    2.021702   31.994256
    154          6           0       -1.719878    2.977589   31.994251
    155          6           0       -2.779255    2.020842   34.455721
    156          6           0       -1.719390    2.974172   34.455721
    157          6           0       -2.787797    2.022879   36.923488
    158          6           0       -1.720536    2.982874   36.923487
    159          6           0       -2.779478    2.020943   39.392256
    160          6           0       -1.719515    2.974385   39.392255
    161          6           0       -2.781904    2.021531   41.852530
    162          6           0       -1.719881    2.976843   41.852540
    163          6           0       -2.788327    2.022847   44.324334
    164          6           0       -1.720561    2.983332   44.324350
    165          6           0       -2.765332    2.012824   46.788913
    166          6           0       -1.713087    2.959364   46.788957
    167          6           0       -2.812618    2.041783   49.254460
    168          6           0       -1.736997    3.009051   49.254547
    169          6           0       -3.476304   -0.000930    1.165576
    170          6           0       -3.175367    1.414010    1.165573
    171          6           0       -3.420989    0.003332    3.631112
    172          6           0       -3.126596    1.387705    3.631104
    173          6           0       -3.445478   -0.002109    6.095676
    174          6           0       -3.146754    1.402707    6.095676
    175          6           0       -3.439486    0.000587    8.567470
    176          6           0       -3.142358    1.397825    8.567472
    177          6           0       -3.437180    0.001534   11.027742
    178          6           0       -3.140611    1.396043   11.027745
    179          6           0       -3.445085   -0.001784   13.496506
    180          6           0       -3.146463    1.402330   13.496508
    181          6           0       -3.436959    0.001594   15.964271
    182          6           0       -3.140399    1.395954   15.964272
    183          6           0       -3.440186    0.000334   18.425737
    184          6           0       -3.142821    1.398447   18.425738
    185          6           0       -3.443631   -0.001112   20.896098
    186          6           0       -3.145370    1.401199   20.896096
    187          6           0       -3.436127    0.001997   23.360866
    188          6           0       -3.139774    1.395311   23.360864
    189          6           0       -3.442627   -0.000669   25.824355
    190          6           0       -3.144624    1.400413   25.824353
    191          6           0       -3.441473   -0.000176   28.295027
    192          6           0       -3.143771    1.399497   28.295024
    193          6           0       -3.436407    0.001884   30.757408
    194          6           0       -3.139985    1.395546   30.757405
    195          6           0       -3.444464   -0.001453   33.223604
    196          6           0       -3.145993    1.401879   33.223601
    197          6           0       -3.438768    0.000940   35.693344
    198          6           0       -3.141775    1.397353   35.693339
    199          6           0       -3.437788    0.001229   38.154110
    200          6           0       -3.141014    1.396674   38.154107
    201          6           0       -3.445650   -0.001966   40.623655
    202          6           0       -3.146916    1.402780   40.623652
    203          6           0       -3.435694    0.002492   43.090860
    204          6           0       -3.139656    1.394613   43.090860
    205          6           0       -3.437779   -0.000413   45.550664
    206          6           0       -3.140391    1.398081   45.550674
    207          6           0       -3.434581   -0.005774   48.030441
    208          6           0       -3.135303    1.401556   48.030449
    209          6           0       -3.539896    0.051233   50.453451
    210          6           0       -3.254678    1.392223   50.453465
    211          6           0       -2.893787   -2.038507   -0.033514
    212          6           0       -3.451618   -0.786144   -0.033505
    213          6           0       -2.775144   -2.022784    2.389521
    214          6           0       -3.360700   -0.708563    2.389548
    215          6           0       -2.780904   -2.020433    4.869313
    216          6           0       -3.362739   -0.714443    4.869336
    217          6           0       -2.780965   -2.016891    7.329122
    218          6           0       -3.360113   -0.716837    7.329137
    219          6           0       -2.786417   -2.026368    9.796334
    220          6           0       -3.370783   -0.714506    9.796343
    221          6           0       -2.781941   -2.019152   12.265887
    222          6           0       -3.362443   -0.715974   12.265891
    223          6           0       -2.782569   -2.019954   14.726652
    224          6           0       -3.363466   -0.715866   14.726653
    225          6           0       -2.785774   -2.025235   17.196395
    226          6           0       -3.369536   -0.714678   17.196395
    227          6           0       -2.781221   -2.017781   19.662592
    228          6           0       -3.360971   -0.716258   19.662591
    229          6           0       -2.784112   -2.022419   22.124970
    230          6           0       -3.366353   -0.715277   22.124968
    231          6           0       -2.784759   -2.023487   24.595647
    232          6           0       -3.367585   -0.715028   24.595645
    233          6           0       -2.781071   -2.017494   27.059133
    234          6           0       -3.360676   -0.716294   27.059131
    235          6           0       -2.785319   -2.024419   29.523900
    236          6           0       -3.368655   -0.714812   29.523897
    237          6           0       -2.783385   -2.021212   31.994265
    238          6           0       -3.364982   -0.715531   31.994262
    239          6           0       -2.781516   -2.018289   34.455727
    240          6           0       -3.361561   -0.716118   34.455725
    241          6           0       -2.786104   -2.025803   36.923496
    242          6           0       -3.370196   -0.714521   36.923491
    243          6           0       -2.781651   -2.018462   39.392266
    244          6           0       -3.361767   -0.716162   39.392260
    245          6           0       -2.782946   -2.020583   41.852539
    246          6           0       -3.364205   -0.715742   41.852528
    247          6           0       -2.786179   -2.026278   44.324347
    248          6           0       -3.370602   -0.714368   44.324327
    249          6           0       -2.769493   -2.007417   46.788920
    250          6           0       -3.345489   -0.714634   46.788886
    251          6           0       -2.811741   -2.043313   49.254486
    252          6           0       -3.400496   -0.721979   49.254416
    253          6           0       -1.073255   -3.304576    1.165446
    254          6           0       -2.326402   -2.581928    1.165535
    255          6           0       -1.060253   -3.250996    3.631029
    256          6           0       -2.286263   -2.543810    3.631069
    257          6           0       -1.062687   -3.276034    6.095631
    258          6           0       -2.306781   -2.558428    6.095651
    259          6           0       -1.063437   -3.269555    8.567446
    260          6           0       -2.300829   -2.555803    8.567455
    261          6           0       -1.063642   -3.267076   11.027734
    262          6           0       -2.298621   -2.554711   11.027737
    263          6           0       -1.062926   -3.275595   13.496505
    264          6           0       -2.306402   -2.558328   13.496507
    265          6           0       -1.063636   -3.266831   15.964274
    266          6           0       -2.298485   -2.554536   15.964274
    267          6           0       -1.063429   -3.270273   18.425743
    268          6           0       -2.301598   -2.556062   18.425742
    269          6           0       -1.063109   -3.273981   20.896104
    270          6           0       -2.304992   -2.557627   20.896103
    271          6           0       -1.063750   -3.265892   23.360872
    272          6           0       -2.297674   -2.554125   23.360871
    273          6           0       -1.063212   -3.272881   25.824361
    274          6           0       -2.304007   -2.557152   25.824360
    275          6           0       -1.063321   -3.271631   28.295032
    276          6           0       -2.302870   -2.556621   28.295030
    277          6           0       -1.063714   -3.266185   30.757412
    278          6           0       -2.297946   -2.554243   30.757411
    279          6           0       -1.063017   -3.274864   33.223607
    280          6           0       -2.305803   -2.557993   33.223607
    281          6           0       -1.063534   -3.268726   35.693346
    282          6           0       -2.300199   -2.555385   35.693345
    283          6           0       -1.063498   -3.267713   38.154115
    284          6           0       -2.299306   -2.554870   38.154114
    285          6           0       -1.062871   -3.276165   40.623666
    286          6           0       -2.306905   -2.558584   40.623662
    287          6           0       -1.064024   -3.265329   43.090883
    288          6           0       -2.296893   -2.554195   43.090876
    289          6           0       -1.061860   -3.268135   45.550714
    290          6           0       -2.300368   -2.553767   45.550699
    291          6           0       -1.055739   -3.266556   48.030533
    292          6           0       -2.302077   -2.547695   48.030508
    293          6           0       -1.142335   -3.348730   50.453600
    294          6           0       -2.329954   -2.663750   50.453581
    295          6           0        1.044588   -3.379715   -0.033708
    296          6           0       -0.318880   -3.523120   -0.033707
    297          6           0        1.066342   -3.262749    2.389428
    298          6           0       -0.364510   -3.413271    2.389436
    299          6           0        1.062263   -3.267607    4.869276
    300          6           0       -0.359602   -3.417191    4.869275
    301          6           0        1.058846   -3.266582    7.329114
    302          6           0       -0.356555   -3.415501    7.329111
    303          6           0        1.066139   -3.274634    9.796335
    304          6           0       -0.362078   -3.424896    9.796333
    305          6           0        1.060663   -3.268159   12.265887
    306          6           0       -0.358117   -3.417434   12.265886
    307          6           0        1.061230   -3.268985   14.726658
    308          6           0       -0.358535   -3.418358   14.726658
    309          6           0        1.065255   -3.273629   17.196398
    310          6           0       -0.361535   -3.423731   17.196399
    311          6           0        1.059590   -3.267020   19.662594
    312          6           0       -0.357387   -3.416094   19.662595
    313          6           0        1.063106   -3.271174   22.124975
    314          6           0       -0.359974   -3.420883   22.124976
    315          6           0        1.063924   -3.272110   24.595647
    316          6           0       -0.360585   -3.421967   24.595647
    317          6           0        1.059379   -3.266774   27.059135
    318          6           0       -0.357247   -3.415808   27.059135
    319          6           0        1.064646   -3.272920   29.523902
    320          6           0       -0.361110   -3.422910   29.523902
    321          6           0        1.062204   -3.270106   31.994261
    322          6           0       -0.359290   -3.419653   31.994261
    323          6           0        1.060010   -3.267443   34.455727
    324          6           0       -0.357673   -3.416597   34.455727
    325          6           0        1.065731   -3.274104   36.923491
    326          6           0       -0.361849   -3.424296   36.923492
    327          6           0        1.060147   -3.267651   39.392258
    328          6           0       -0.357682   -3.416826   39.392261
    329          6           0        1.061773   -3.269544   41.852539
    330          6           0       -0.358821   -3.419011   41.852543
    331          6           0        1.066205   -3.274363   44.324348
    332          6           0       -0.362075   -3.424626   44.324352
    333          6           0        1.053491   -3.252721   46.788948
    334          6           0       -0.354043   -3.400793   46.788950
    335          6           0        1.074613   -3.303811   49.254543
    336          6           0       -0.364002   -3.455116   49.254532
    337          6           0        2.812618   -2.041783    1.165536
    338          6           0        1.736997   -3.009051    1.165448
    339          6           0        2.765333   -2.012824    3.631083
    340          6           0        1.713087   -2.959364    3.631039
    341          6           0        2.788328   -2.022847    6.095662
    342          6           0        1.720561   -2.983332    6.095646
    343          6           0        2.781904   -2.021531    8.567465
    344          6           0        1.719881   -2.976843    8.567455
    345          6           0        2.779478   -2.020943   11.027740
    346          6           0        1.719515   -2.974385   11.027741
    347          6           0        2.787797   -2.022879   13.496508
    348          6           0        1.720537   -2.982874   13.496509
    349          6           0        2.779256   -2.020842   15.964275
    350          6           0        1.719390   -2.974172   15.964275
    351          6           0        2.782599   -2.021702   18.425740
    352          6           0        1.719878   -2.977589   18.425745
    353          6           0        2.786228   -2.022538   20.896102
    354          6           0        1.720319   -2.981289   20.896103
    355          6           0        2.778351   -2.020647   23.360870
    356          6           0        1.719266   -2.973254   23.360871
    357          6           0        2.785163   -2.022287   25.824358
    358          6           0        1.720183   -2.980197   25.824361
    359          6           0        2.783945   -2.022001   28.295031
    360          6           0        1.720036   -2.978949   28.295030
    361          6           0        2.778652   -2.020692   30.757409
    362          6           0        1.719308   -2.973539   30.757410
    363          6           0        2.787116   -2.022705   33.223604
    364          6           0        1.720438   -2.982159   33.223605
    365          6           0        2.781123   -2.021304   35.693342
    366          6           0        1.719702   -2.976037   35.693340
    367          6           0        2.780171   -2.020964   38.154105
    368          6           0        1.719495   -2.975044   38.154109
    369          6           0        2.788407   -2.022991   40.623651
    370          6           0        1.720679   -2.983424   40.623654
    371          6           0        2.777777   -2.020771   43.090858
    372          6           0        1.719634   -2.972584   43.090867
    373          6           0        2.781159   -2.019619   45.550670
    374          6           0        1.718184   -2.975780   45.550697
    375          6           0        2.781690   -2.013357   48.030479
    376          6           0        1.711968   -2.975531   48.030516
    377          6           0        2.833194   -2.121100   50.453535
    378          6           0        1.813869   -3.037941   50.453587
    379          6           0        3.539897   -0.051233   -0.033455
    380          6           0        3.254678   -1.392223   -0.033469
    381          6           0        3.434581    0.005774    2.389554
    382          6           0        3.135303   -1.401556    2.389547
    383          6           0        3.437779    0.000413    4.869331
    384          6           0        3.140392   -1.398081    4.869322
    385          6           0        3.435695   -0.002492    7.329136
    386          6           0        3.139657   -1.394613    7.329136
    387          6           0        3.445651    0.001966    9.796340
    388          6           0        3.146916   -1.402780    9.796344
    389          6           0        3.437788   -0.001229   12.265886
    390          6           0        3.141014   -1.396673   12.265889
    391          6           0        3.438768   -0.000940   14.726652
    392          6           0        3.141775   -1.397353   14.726657
    393          6           0        3.444464    0.001454   17.196392
    394          6           0        3.145994   -1.401879   17.196395
    395          6           0        3.436408   -0.001884   19.662588
    396          6           0        3.139985   -1.395546   19.662591
    397          6           0        3.441473    0.000176   22.124969
    398          6           0        3.143771   -1.399497   22.124972
    399          6           0        3.442627    0.000669   24.595641
    400          6           0        3.144625   -1.400413   24.595643
    401          6           0        3.436127   -0.001997   27.059130
    402          6           0        3.139775   -1.395311   27.059132
    403          6           0        3.443632    0.001113   29.523898
    404          6           0        3.145371   -1.401199   29.523899
    405          6           0        3.440186   -0.000334   31.994259
    406          6           0        3.142821   -1.398447   31.994258
    407          6           0        3.436960   -0.001594   34.455724
    408          6           0        3.140399   -1.395954   34.455724
    409          6           0        3.445085    0.001784   36.923490
    410          6           0        3.146463   -1.402330   36.923487
    411          6           0        3.437180   -0.001534   39.392254
    412          6           0        3.140611   -1.396042   39.392250
    413          6           0        3.439486   -0.000587   41.852526
    414          6           0        3.142359   -1.397825   41.852524
    415          6           0        3.445479    0.002109   44.324320
    416          6           0        3.146754   -1.402707   44.324320
    417          6           0        3.420990   -0.003333   46.788884
    418          6           0        3.126596   -1.387705   46.788892
    419          6           0        3.476304    0.000930   49.254419
    420          6           0        3.175367   -1.414010   49.254423
    421          1           0        2.756856    2.553112   51.399529
    422          1           0        3.742549    0.340145   51.399529
    423          1           0        0.728920    3.684225   -0.979672
    424          1           0        2.827376    2.473876   -0.979652
    425          1           0       -1.576210    3.407992   51.399795
    426          1           0        0.832979    3.661300   51.399812
    427          1           0       -3.280404    1.832012   -0.979564
    428          1           0       -1.479332    3.452100   -0.979677
    429          1           0       -3.731912   -0.445489   51.399457
    430          1           0       -3.227842    1.924024   51.399506
    431          1           0       -2.756855   -2.553112   -0.979534
    432          1           0       -3.742549   -0.340145   -0.979533
    433          1           0       -0.728920   -3.684225   51.399668
    434          1           0       -2.827376   -2.473876   51.399648
    435          1           0        1.576211   -3.407992   -0.979799
    436          1           0       -0.832978   -3.661301   -0.979816
    437          1           0        3.280404   -1.832012   51.399560
    438          1           0        1.479332   -3.452100   51.399673
    439          1           0        3.731912    0.445489   -0.979461
    440          1           0        3.227842   -1.924024   -0.979511
 ---------------------------------------------------------------------
 Rotational constants (GHZ):           0.0084102           0.0004322           0.0004322
 Standard basis: 6-311G(d) (5D, 7F)
  7620 basis functions, 13540 primitive gaussians,  8040 cartesian basis functions
  1270 alpha electrons     1270 beta electrons
       nuclear repulsion energy    153838.1390741434 Hartrees.
 NAtoms=  440 NActive=  440 NUniq=  440 SFac= 1.00D+00 NAtFMM=   60 NAOKFM=T Big=T
 Integral buffers will be    131072 words long.
 Raffenetti 2 integral format.
 Two-electron integral symmetry is turned off.
 One-electron integrals computed using PRISM.
 NBasis=  7620 RedAO= T EigKep=  9.45D-06  NBF=  7620
 NBsUse=  7620 1.00D-06 EigRej= -1.00D+00 NBFU=  7620
 ExpMin= 1.03D-01 ExpMax= 4.56D+03 ExpMxC= 6.82D+02 IAcc=3 IRadAn=         5 AccDes= 0.00D+00
 Harris functional with IExCor=  402 and IRadAn=       5 diagonalized for initial guess.
 HarFok:  IExCor=  402 AccDes= 0.00D+00 IRadAn=         5 IDoV= 1 UseB2=F ITyADJ=14
 ICtDFT=  3500011 ScaDFX=  1.000000  1.000000  1.000000  1.000000
 FoFCou: FMM=F IPFlag=           0 FMFlag=      100000 FMFlg1=        2001
         NFxFlg=           0 DoJE=T BraDBF=F KetDBF=T FulRan=T
         wScrn=  0.000000 ICntrl=       500 IOpCl=  0 I1Cent=   200000004 NGrid=           0
         NMat0=    1 NMatS0=      1 NMatT0=    0 NMatD0=    1 NMtDS0=    0 NMtDT0=    0
 Symmetry not used in FoFCou.
 Requested convergence on RMS density matrix=1.00D-08 within 128 cycles.
 Requested convergence on MAX density matrix=1.00D-06.
 Requested convergence on             energy=1.00D-06.
 No special actions if energy rises.
 Integral accuracy reduced to 1.0D-05 until final iterations.
 Problem detected with inexpensive integrals.
 Switching to full accuracy and repeating last cycle.
 EnCoef did     6 forward-backward iterations
 EnCoef did     3 forward-backward iterations
 SCF Done:  E(RB3LYP) =  -16021.2274812     A.U. after   19 cycles
            NFock= 19  Conv=0.87D-08     -V/T= 2.0042
 Hyperfine terms turned off by default for NAtoms > 100.

 **********************************************************************

            Population analysis using the SCF Density.

 **********************************************************************

 Alpha  occ. eigenvalues --  -10.21757 -10.21756 -10.21755 -10.21754 -10.21753
 Alpha  occ. eigenvalues --  -10.21752 -10.21751 -10.21750 -10.21750 -10.21750
 Alpha  occ. eigenvalues --  -10.21750 -10.21748 -10.21747 -10.21747 -10.21746
 Alpha  occ. eigenvalues --  -10.21746 -10.21746 -10.21744 -10.21744 -10.21744
 Alpha  occ. eigenvalues --  -10.21744 -10.21741 -10.21741 -10.21741 -10.21740
 Alpha  occ. eigenvalues --  -10.21740 -10.21739 -10.21739 -10.21737 -10.21737
 Alpha  occ. eigenvalues --  -10.21737 -10.21737 -10.21735 -10.21735 -10.21735
 Alpha  occ. eigenvalues --  -10.21733 -10.21733 -10.21733 -10.21732 -10.21732
 Alpha  occ. eigenvalues --  -10.21732 -10.21731 -10.21731 -10.21731 -10.21730
 Alpha  occ. eigenvalues --  -10.21730 -10.21730 -10.21730 -10.21729 -10.21728
 Alpha  occ. eigenvalues --  -10.21728 -10.21728 -10.21728 -10.21727 -10.21727
 Alpha  occ. eigenvalues --  -10.21726 -10.21726 -10.21725 -10.21724 -10.21724
 Alpha  occ. eigenvalues --  -10.21724 -10.21724 -10.21724 -10.21724 -10.21723
 Alpha  occ. eigenvalues --  -10.21723 -10.21722 -10.21722 -10.21722 -10.21722
 Alpha  occ. eigenvalues --  -10.21720 -10.21720 -10.21719 -10.21719 -10.21719
 Alpha  occ. eigenvalues --  -10.21719 -10.21718 -10.21718 -10.21718 -10.21718
 Alpha  occ. eigenvalues --  -10.21718 -10.21718 -10.21715 -10.21715 -10.21715
 Alpha  occ. eigenvalues --  -10.21715 -10.21714 -10.21714 -10.21713 -10.21713
 Alpha  occ. eigenvalues --  -10.21713 -10.21712 -10.21710 -10.21708 -10.21707
 Alpha  occ. eigenvalues --  -10.21707 -10.21707 -10.21707 -10.21707 -10.21707
 Alpha  occ. eigenvalues --  -10.21707 -10.21707 -10.21705 -10.21705 -10.21705
 Alpha  occ. eigenvalues --  -10.21705 -10.21703 -10.21702 -10.21700 -10.21699
 Alpha  occ. eigenvalues --  -10.21697 -10.21696 -10.21695 -10.21695 -10.21695
 Alpha  occ. eigenvalues --  -10.21695 -10.21693 -10.21693 -10.21693 -10.21693
 Alpha  occ. eigenvalues --  -10.21692 -10.21691 -10.21689 -10.21687 -10.21687
 Alpha  occ. eigenvalues --  -10.21687 -10.21686 -10.21686 -10.21685 -10.21685
 Alpha  occ. eigenvalues --  -10.21685 -10.21685 -10.21683 -10.21683 -10.21682
 Alpha  occ. eigenvalues --  -10.21682 -10.21682 -10.21682 -10.21680 -10.21680
 Alpha  occ. eigenvalues --  -10.21680 -10.21680 -10.21680 -10.21679 -10.21679
 Alpha  occ. eigenvalues --  -10.21678 -10.21678 -10.21678 -10.21677 -10.21676
 Alpha  occ. eigenvalues --  -10.21676 -10.21676 -10.21675 -10.21675 -10.21675
 Alpha  occ. eigenvalues --  -10.21675 -10.21675 -10.21674 -10.21674 -10.21673
 Alpha  occ. eigenvalues --  -10.21673 -10.21672 -10.21672 -10.21672 -10.21672
 Alpha  occ. eigenvalues --  -10.21672 -10.21671 -10.21671 -10.21671 -10.21671
 Alpha  occ. eigenvalues --  -10.21670 -10.21670 -10.21670 -10.21670 -10.21669
 Alpha  occ. eigenvalues --  -10.21669 -10.21668 -10.21668 -10.21668 -10.21666
 Alpha  occ. eigenvalues --  -10.21666 -10.21665 -10.21665 -10.21665 -10.21663
 Alpha  occ. eigenvalues --  -10.21663 -10.21663 -10.21663 -10.21662 -10.21662
 Alpha  occ. eigenvalues --  -10.21662 -10.21662 -10.21662 -10.21661 -10.21661
 Alpha  occ. eigenvalues --  -10.21659 -10.21659 -10.21658 -10.21658 -10.21658
 Alpha  occ. eigenvalues --  -10.21658 -10.21657 -10.21657 -10.21657 -10.21657
 Alpha  occ. eigenvalues --  -10.21657 -10.21655 -10.21654 -10.21651 -10.21651
 Alpha  occ. eigenvalues --  -10.21651 -10.21651 -10.21651 -10.21650 -10.21649
 Alpha  occ. eigenvalues --  -10.21649 -10.21649 -10.21649 -10.21649 -10.21649
 Alpha  occ. eigenvalues --  -10.21648 -10.21648 -10.21647 -10.21647 -10.21647
 Alpha  occ. eigenvalues --  -10.21646 -10.21645 -10.21644 -10.21644 -10.21644
 Alpha  occ. eigenvalues --  -10.21643 -10.21643 -10.21643 -10.21641 -10.21641
 Alpha  occ. eigenvalues --  -10.21641 -10.21640 -10.21639 -10.21639 -10.21638
 Alpha  occ. eigenvalues --  -10.21637 -10.21637 -10.21637 -10.21637 -10.21637
 Alpha  occ. eigenvalues --  -10.21636 -10.21636 -10.21636 -10.21636 -10.21636
 Alpha  occ. eigenvalues --  -10.21633 -10.21633 -10.21633 -10.21633 -10.21630
 Alpha  occ. eigenvalues --  -10.21630 -10.21630 -10.21630 -10.21629 -10.21629
 Alpha  occ. eigenvalues --  -10.21624 -10.21624 -10.21623 -10.21623 -10.21621
 Alpha  occ. eigenvalues --  -10.21621 -10.21619 -10.21619 -10.21619 -10.21619
 Alpha  occ. eigenvalues --  -10.21614 -10.21614 -10.21611 -10.21611 -10.21611
 Alpha  occ. eigenvalues --  -10.21611 -10.21611 -10.21611 -10.21610 -10.21610
 Alpha  occ. eigenvalues --  -10.21601 -10.21601 -10.21601 -10.21601 -10.21600
 Alpha  occ. eigenvalues --  -10.21600 -10.21600 -10.21600 -10.21599 -10.21599
 Alpha  occ. eigenvalues --  -10.21591 -10.21591 -10.21591 -10.21591 -10.21583
 Alpha  occ. eigenvalues --  -10.21583 -10.21583 -10.21583 -10.21575 -10.21575
 Alpha  occ. eigenvalues --  -10.21573 -10.21573 -10.21564 -10.21564 -10.21564
 Alpha  occ. eigenvalues --  -10.21564 -10.21555 -10.21555 -10.21555 -10.21555
 Alpha  occ. eigenvalues --  -10.21546 -10.21546 -10.21546 -10.21546 -10.21538
 Alpha  occ. eigenvalues --  -10.21538 -10.21537 -10.21537 -10.21533 -10.21533
 Alpha  occ. eigenvalues --  -10.21517 -10.21517 -10.21513 -10.21513 -10.21513
 Alpha  occ. eigenvalues --  -10.21513 -10.21507 -10.21507 -10.21507 -10.21507
 Alpha  occ. eigenvalues --  -10.21480 -10.21480 -10.21479 -10.21479 -10.21477
 Alpha  occ. eigenvalues --  -10.21477 -10.21477 -10.21477 -10.21476 -10.21476
 Alpha  occ. eigenvalues --  -10.21380 -10.21380 -10.21380 -10.21380 -10.21380
 Alpha  occ. eigenvalues --  -10.21380 -10.21380 -10.21380 -10.21379 -10.21379
 Alpha  occ. eigenvalues --  -10.21374 -10.21374 -10.21374 -10.21374 -10.21374
 Alpha  occ. eigenvalues --  -10.21374 -10.21374 -10.21374 -10.21373 -10.21373
 Alpha  occ. eigenvalues --  -10.21347 -10.21347 -10.21347 -10.21347 -10.21346
 Alpha  occ. eigenvalues --  -10.21346 -10.21346 -10.21346 -10.21345 -10.21345
 Alpha  occ. eigenvalues --  -10.21331 -10.21331 -10.21331 -10.21331 -10.21331
 Alpha  occ. eigenvalues --  -10.21331 -10.21331 -10.21331 -10.21330 -10.21330
 Alpha  occ. eigenvalues --  -10.21274 -10.21274 -10.21273 -10.21273 -10.21272
 Alpha  occ. eigenvalues --  -10.21272 -10.21270 -10.21270 -10.21270 -10.21270
 Alpha  occ. eigenvalues --  -10.21237 -10.21237 -10.21237 -10.21237 -10.21236
 Alpha  occ. eigenvalues --  -10.21236 -10.21236 -10.21236 -10.21235 -10.21235
 Alpha  occ. eigenvalues --  -10.20125 -10.20125 -10.20125 -10.20125 -10.20124
 Alpha  occ. eigenvalues --  -10.20124 -10.20124 -10.20124 -10.20123 -10.20123
 Alpha  occ. eigenvalues --  -10.20063 -10.20063 -10.20062 -10.20062 -10.20062
 Alpha  occ. eigenvalues --  -10.20062 -10.20062 -10.20062 -10.20061 -10.20061
 Alpha  occ. eigenvalues --   -0.96356  -0.96208  -0.95991  -0.95705  -0.95347
 Alpha  occ. eigenvalues --   -0.95329  -0.95328  -0.95182  -0.95181  -0.94966
 Alpha  occ. eigenvalues --   -0.94965  -0.94915  -0.94681  -0.94680  -0.94408
 Alpha  occ. eigenvalues --   -0.94324  -0.94324  -0.93894  -0.93893  -0.93827
 Alpha  occ. eigenvalues --   -0.93390  -0.93389  -0.93176  -0.92813  -0.92812
 Alpha  occ. eigenvalues --   -0.92456  -0.92314  -0.92314  -0.92168  -0.92168
 Alpha  occ. eigenvalues --   -0.92166  -0.92165  -0.91954  -0.91954  -0.91673
 Alpha  occ. eigenvalues --   -0.91672  -0.91669  -0.91451  -0.91450  -0.91321
 Alpha  occ. eigenvalues --   -0.91321  -0.90899  -0.90898  -0.90816  -0.90668
 Alpha  occ. eigenvalues --   -0.90667  -0.90404  -0.90404  -0.89907  -0.89838
 Alpha  occ. eigenvalues --   -0.89838  -0.89820  -0.89820  -0.89205  -0.89205
 Alpha  occ. eigenvalues --   -0.88916  -0.88916  -0.88855  -0.88506  -0.88506
 Alpha  occ. eigenvalues --   -0.87870  -0.87869  -0.87791  -0.87744  -0.87744
 Alpha  occ. eigenvalues --   -0.87489  -0.87488  -0.87346  -0.87345  -0.87137
 Alpha  occ. eigenvalues --   -0.87137  -0.86929  -0.86929  -0.86866  -0.86866
 Alpha  occ. eigenvalues --   -0.86815  -0.86814  -0.86658  -0.86513  -0.86512
 Alpha  occ. eigenvalues --   -0.86170  -0.86170  -0.85974  -0.85973  -0.85693
 Alpha  occ. eigenvalues --   -0.85692  -0.85642  -0.85641  -0.85461  -0.85078
 Alpha  occ. eigenvalues --   -0.85078  -0.85006  -0.85006  -0.84508  -0.84507
 Alpha  occ. eigenvalues --   -0.84436  -0.84435  -0.84202  -0.84041  -0.84041
 Alpha  occ. eigenvalues --   -0.83685  -0.83685  -0.83266  -0.83266  -0.83135
 Alpha  occ. eigenvalues --   -0.83135  -0.82886  -0.82742  -0.82742  -0.82271
 Alpha  occ. eigenvalues --   -0.82271  -0.81976  -0.81975  -0.81639  -0.81638
 Alpha  occ. eigenvalues --   -0.81517  -0.81382  -0.81382  -0.81155  -0.81155
 Alpha  occ. eigenvalues --   -0.81015  -0.81015  -0.80813  -0.80813  -0.80658
 Alpha  occ. eigenvalues --   -0.80658  -0.80538  -0.80538  -0.80466  -0.80466
 Alpha  occ. eigenvalues --   -0.80373  -0.80372  -0.80184  -0.80183  -0.80100
 Alpha  occ. eigenvalues --   -0.79843  -0.79843  -0.79375  -0.79374  -0.79358
 Alpha  occ. eigenvalues --   -0.79358  -0.79261  -0.79261  -0.79250  -0.79250
 Alpha  occ. eigenvalues --   -0.78792  -0.78792  -0.78642  -0.78337  -0.78336
 Alpha  occ. eigenvalues --   -0.78306  -0.78306  -0.78027  -0.78027  -0.77778
 Alpha  occ. eigenvalues --   -0.77777  -0.77623  -0.77623  -0.77294  -0.77293
 Alpha  occ. eigenvalues --   -0.77152  -0.76896  -0.76896  -0.76853  -0.76852
 Alpha  occ. eigenvalues --   -0.76469  -0.76469  -0.76319  -0.76319  -0.76074
 Alpha  occ. eigenvalues --   -0.76074  -0.75860  -0.75859  -0.75643  -0.75584
 Alpha  occ. eigenvalues --   -0.75583  -0.75457  -0.75446  -0.75446  -0.75362
 Alpha  occ. eigenvalues --   -0.75362  -0.75323  -0.75127  -0.74968  -0.74968
 Alpha  occ. eigenvalues --   -0.74873  -0.74560  -0.74537  -0.74537  -0.74191
 Alpha  occ. eigenvalues --   -0.74129  -0.73836  -0.73836  -0.73765  -0.73762
 Alpha  occ. eigenvalues --   -0.73761  -0.73279  -0.73195  -0.73195  -0.73153
 Alpha  occ. eigenvalues --   -0.73152  -0.72731  -0.72637  -0.72119  -0.71443
 Alpha  occ. eigenvalues --   -0.71202  -0.70704  -0.70394  -0.70393  -0.70270
 Alpha  occ. eigenvalues --   -0.70254  -0.70254  -0.70145  -0.69973  -0.69920
 Alpha  occ. eigenvalues --   -0.69883  -0.69736  -0.69531  -0.69530  -0.69451
 Alpha  occ. eigenvalues --   -0.69167  -0.69167  -0.69135  -0.68884  -0.68787
 Alpha  occ. eigenvalues --   -0.68766  -0.68664  -0.68663  -0.68503  -0.68503
 Alpha  occ. eigenvalues --   -0.68378  -0.68337  -0.68337  -0.68016  -0.67957
 Alpha  occ. eigenvalues --   -0.67906  -0.67906  -0.67869  -0.67819  -0.67819
 Alpha  occ. eigenvalues --   -0.67684  -0.67532  -0.67532  -0.67512  -0.67485
 Alpha  occ. eigenvalues --   -0.66954  -0.66941  -0.66941  -0.66806  -0.66806
 Alpha  occ. eigenvalues --   -0.66360  -0.66359  -0.66342  -0.66341  -0.65889
 Alpha  occ. eigenvalues --   -0.65544  -0.65544  -0.65424  -0.65424  -0.65077
 Alpha  occ. eigenvalues --   -0.65077  -0.64784  -0.64784  -0.64765  -0.64233
 Alpha  occ. eigenvalues --   -0.64233  -0.63835  -0.63835  -0.63739  -0.63738
 Alpha  occ. eigenvalues --   -0.63584  -0.63501  -0.63500  -0.63393  -0.63392
 Alpha  occ. eigenvalues --   -0.63242  -0.63241  -0.63173  -0.63173  -0.63147
 Alpha  occ. eigenvalues --   -0.63147  -0.63017  -0.63016  -0.62824  -0.62823
 Alpha  occ. eigenvalues --   -0.62574  -0.62572  -0.62496  -0.62496  -0.62349
 Alpha  occ. eigenvalues --   -0.62322  -0.62321  -0.62220  -0.62220  -0.62177
 Alpha  occ. eigenvalues --   -0.62177  -0.62111  -0.62109  -0.62036  -0.62035
 Alpha  occ. eigenvalues --   -0.61965  -0.61964  -0.61512  -0.61512  -0.61062
 Alpha  occ. eigenvalues --   -0.60786  -0.60786  -0.60530  -0.60530  -0.59850
 Alpha  occ. eigenvalues --   -0.59850  -0.59725  -0.59711  -0.59696  -0.59292
 Alpha  occ. eigenvalues --   -0.59291  -0.59213  -0.59056  -0.58899  -0.58899
 Alpha  occ. eigenvalues --   -0.58489  -0.58341  -0.58191  -0.58190  -0.58135
 Alpha  occ. eigenvalues --   -0.57759  -0.57759  -0.57530  -0.57345  -0.57344
 Alpha  occ. eigenvalues --   -0.57091  -0.56913  -0.56530  -0.56530  -0.56308
 Alpha  occ. eigenvalues --   -0.56250  -0.56250  -0.55994  -0.55931  -0.55930
 Alpha  occ. eigenvalues --   -0.55889  -0.55888  -0.55843  -0.55843  -0.55445
 Alpha  occ. eigenvalues --   -0.55434  -0.55433  -0.55419  -0.55418  -0.55210
 Alpha  occ. eigenvalues --   -0.55209  -0.54887  -0.54853  -0.54853  -0.54845
 Alpha  occ. eigenvalues --   -0.54797  -0.54796  -0.54428  -0.54427  -0.54417
 Alpha  occ. eigenvalues --   -0.54417  -0.54389  -0.54388  -0.54150  -0.54149
 Alpha  occ. eigenvalues --   -0.54086  -0.54085  -0.54018  -0.54016  -0.53979
 Alpha  occ. eigenvalues --   -0.53977  -0.53973  -0.53971  -0.53965  -0.53964
 Alpha  occ. eigenvalues --   -0.53940  -0.53792  -0.53791  -0.53736  -0.53735
 Alpha  occ. eigenvalues --   -0.53641  -0.53591  -0.53591  -0.53379  -0.53371
 Alpha  occ. eigenvalues --   -0.53370  -0.52721  -0.52720  -0.52662  -0.52662
 Alpha  occ. eigenvalues --   -0.52536  -0.52535  -0.52401  -0.52384  -0.52083
 Alpha  occ. eigenvalues --   -0.52083  -0.51873  -0.51585  -0.51584  -0.51189
 Alpha  occ. eigenvalues --   -0.51189  -0.51076  -0.51012  -0.51012  -0.50836
 Alpha  occ. eigenvalues --   -0.50626  -0.50626  -0.50565  -0.50564  -0.50424
 Alpha  occ. eigenvalues --   -0.49788  -0.49788  -0.49733  -0.49720  -0.49719
 Alpha  occ. eigenvalues --   -0.49271  -0.49239  -0.49238  -0.49208  -0.49207
 Alpha  occ. eigenvalues --   -0.49196  -0.49195  -0.49184  -0.49184  -0.49054
 Alpha  occ. eigenvalues --   -0.49035  -0.48966  -0.48965  -0.48935  -0.48934
 Alpha  occ. eigenvalues --   -0.48868  -0.48773  -0.48772  -0.48644  -0.48643
 Alpha  occ. eigenvalues --   -0.48620  -0.48402  -0.48378  -0.48377  -0.48288
 Alpha  occ. eigenvalues --   -0.48227  -0.48227  -0.48151  -0.48150  -0.47914
 Alpha  occ. eigenvalues --   -0.47913  -0.47892  -0.47885  -0.47884  -0.47872
 Alpha  occ. eigenvalues --   -0.47871  -0.47756  -0.47710  -0.47708  -0.47619
 Alpha  occ. eigenvalues --   -0.47619  -0.47526  -0.47525  -0.47511  -0.47511
 Alpha  occ. eigenvalues --   -0.47511  -0.47471  -0.47469  -0.47393  -0.47179
 Alpha  occ. eigenvalues --   -0.47179  -0.47171  -0.47171  -0.47157  -0.47156
 Alpha  occ. eigenvalues --   -0.47125  -0.47032  -0.47031  -0.46814  -0.46799
 Alpha  occ. eigenvalues --   -0.46798  -0.46748  -0.46747  -0.46597  -0.46579
 Alpha  occ. eigenvalues --   -0.46578  -0.46562  -0.46561  -0.46491  -0.46489
 Alpha  occ. eigenvalues --   -0.46429  -0.46428  -0.46409  -0.46408  -0.46365
 Alpha  occ. eigenvalues --   -0.46365  -0.46324  -0.46322  -0.46307  -0.46306
 Alpha  occ. eigenvalues --   -0.46265  -0.46264  -0.46177  -0.46169  -0.46168
 Alpha  occ. eigenvalues --   -0.46081  -0.46080  -0.45979  -0.45979  -0.45918
 Alpha  occ. eigenvalues --   -0.45890  -0.45822  -0.45820  -0.45745  -0.45744
 Alpha  occ. eigenvalues --   -0.45645  -0.45623  -0.45622  -0.45447  -0.45347
 Alpha  occ. eigenvalues --   -0.45346  -0.45315  -0.45314  -0.45218  -0.45216
 Alpha  occ. eigenvalues --   -0.45199  -0.45198  -0.44949  -0.44913  -0.44912
 Alpha  occ. eigenvalues --   -0.44796  -0.44794  -0.44794  -0.44785  -0.44785
 Alpha  occ. eigenvalues --   -0.44697  -0.44632  -0.44540  -0.44539  -0.44410
 Alpha  occ. eigenvalues --   -0.44410  -0.44258  -0.44078  -0.44077  -0.44068
 Alpha  occ. eigenvalues --   -0.44068  -0.43972  -0.43945  -0.43944  -0.43939
 Alpha  occ. eigenvalues --   -0.43788  -0.43788  -0.43787  -0.43787  -0.43728
 Alpha  occ. eigenvalues --   -0.43728  -0.43545  -0.43545  -0.43371  -0.43371
 Alpha  occ. eigenvalues --   -0.43346  -0.43252  -0.43252  -0.43243  -0.43190
 Alpha  occ. eigenvalues --   -0.43189  -0.43153  -0.43153  -0.43145  -0.43145
 Alpha  occ. eigenvalues --   -0.43118  -0.43117  -0.43072  -0.43071  -0.43067
 Alpha  occ. eigenvalues --   -0.43065  -0.43009  -0.43009  -0.42888  -0.42887
 Alpha  occ. eigenvalues --   -0.42866  -0.42866  -0.42845  -0.42844  -0.42630
 Alpha  occ. eigenvalues --   -0.42569  -0.42568  -0.42490  -0.42489  -0.42465
 Alpha  occ. eigenvalues --   -0.42465  -0.42436  -0.42435  -0.42116  -0.42114
 Alpha  occ. eigenvalues --   -0.41967  -0.41965  -0.41864  -0.41864  -0.41843
 Alpha  occ. eigenvalues --   -0.41843  -0.41815  -0.41815  -0.41269  -0.41269
 Alpha  occ. eigenvalues --   -0.41207  -0.41206  -0.41019  -0.40987  -0.40986
 Alpha  occ. eigenvalues --   -0.40865  -0.40863  -0.40860  -0.40859  -0.40730
 Alpha  occ. eigenvalues --   -0.40729  -0.40722  -0.40721  -0.40537  -0.40537
 Alpha  occ. eigenvalues --   -0.39744  -0.39531  -0.39469  -0.39468  -0.39455
 Alpha  occ. eigenvalues --   -0.39454  -0.39443  -0.39221  -0.39219  -0.39189
 Alpha  occ. eigenvalues --   -0.39189  -0.39108  -0.39107  -0.39042  -0.38851
 Alpha  occ. eigenvalues --   -0.38850  -0.38635  -0.38497  -0.38496  -0.38493
 Alpha  occ. eigenvalues --   -0.38492  -0.38470  -0.38469  -0.38353  -0.38352
 Alpha  occ. eigenvalues --   -0.38118  -0.38117  -0.38082  -0.37926  -0.37880
 Alpha  occ. eigenvalues --   -0.37880  -0.37821  -0.37821  -0.37798  -0.37798
 Alpha  occ. eigenvalues --   -0.37766  -0.37766  -0.37612  -0.37445  -0.37444
 Alpha  occ. eigenvalues --   -0.37383  -0.37383  -0.37141  -0.37141  -0.37122
 Alpha  occ. eigenvalues --   -0.37121  -0.36997  -0.36996  -0.36933  -0.36930
 Alpha  occ. eigenvalues --   -0.36929  -0.36820  -0.36820  -0.36768  -0.36767
 Alpha  occ. eigenvalues --   -0.36720  -0.36720  -0.36594  -0.36529  -0.36528
 Alpha  occ. eigenvalues --   -0.36495  -0.36355  -0.36355  -0.36306  -0.36305
 Alpha  occ. eigenvalues --   -0.36210  -0.36209  -0.36063  -0.36063  -0.35813
 Alpha  occ. eigenvalues --   -0.35812  -0.35706  -0.35706  -0.35691  -0.35691
 Alpha  occ. eigenvalues --   -0.35642  -0.35627  -0.35524  -0.35523  -0.35517
 Alpha  occ. eigenvalues --   -0.35517  -0.35327  -0.35326  -0.35238  -0.35238
 Alpha  occ. eigenvalues --   -0.35180  -0.35173  -0.35173  -0.34966  -0.34965
 Alpha  occ. eigenvalues --   -0.34811  -0.34811  -0.34734  -0.34645  -0.34645
 Alpha  occ. eigenvalues --   -0.34452  -0.34452  -0.34440  -0.34440  -0.34253
 Alpha  occ. eigenvalues --   -0.34253  -0.34253  -0.34189  -0.34188  -0.34012
 Alpha  occ. eigenvalues --   -0.33927  -0.33809  -0.33809  -0.33499  -0.33499
 Alpha  occ. eigenvalues --   -0.33436  -0.33436  -0.33425  -0.33424  -0.33254
 Alpha  occ. eigenvalues --   -0.33213  -0.33213  -0.33112  -0.33112  -0.33023
 Alpha  occ. eigenvalues --   -0.32755  -0.32743  -0.32743  -0.32675  -0.32364
 Alpha  occ. eigenvalues --   -0.32364  -0.32244  -0.32228  -0.31925  -0.31921
 Alpha  occ. eigenvalues --   -0.31921  -0.31773  -0.31717  -0.31717  -0.31706
 Alpha  occ. eigenvalues --   -0.31433  -0.31289  -0.31289  -0.31213  -0.31020
[...]
   289  C   -0.000494  -0.000495
   290  C   -0.000491  -0.000491
   291  C   -0.000301  -0.000525
   292  C   -0.000295  -0.000519
   293  C    0.009722   0.013932
   294  C    0.009724   0.013935
   295  C    0.009731   0.013943
   296  C    0.009724   0.013936
   297  C   -0.000292  -0.000516
   298  C   -0.000302  -0.000526
   299  C   -0.000484  -0.000485
   300  C   -0.000498  -0.000499
   301  C   -0.000518  -0.000518
   302  C   -0.000531  -0.000531
   303  C   -0.000686  -0.000686
   304  C   -0.000699  -0.000699
   305  C   -0.000204  -0.000204
   306  C   -0.000219  -0.000219
   307  C   -0.000494  -0.000494
   308  C   -0.000507  -0.000507
   309  C   -0.000490  -0.000490
   310  C   -0.000504  -0.000504
   311  C   -0.000234  -0.000234
   312  C   -0.000249  -0.000249
   313  C   -0.000452  -0.000452
   314  C   -0.000466  -0.000466
   315  C   -0.000445  -0.000445
   316  C   -0.000459  -0.000459
   317  C   -0.000244  -0.000244
   318  C   -0.000259  -0.000259
   319  C   -0.000456  -0.000456
   320  C   -0.000470  -0.000470
   321  C   -0.000469  -0.000469
   322  C   -0.000483  -0.000483
   323  C   -0.000216  -0.000216
   324  C   -0.000231  -0.000231
   325  C   -0.000562  -0.000562
   326  C   -0.000576  -0.000576
   327  C   -0.000523  -0.000523
   328  C   -0.000537  -0.000537
   329  C   -0.000232  -0.000232
   330  C   -0.000247  -0.000247
   331  C   -0.000843  -0.000843
   332  C   -0.000855  -0.000855
   333  C   -0.000824  -0.000836
   334  C   -0.000836  -0.000848
   335  C   -0.000885  -0.004858
   336  C   -0.000897  -0.004870
   337  C   -0.000898  -0.004871
   338  C   -0.000889  -0.004862
   339  C   -0.000830  -0.000842
   340  C   -0.000825  -0.000837
   341  C   -0.000858  -0.000858
   342  C   -0.000852  -0.000852
   343  C   -0.000243  -0.000243
   344  C   -0.000240  -0.000240
   345  C   -0.000534  -0.000534
   346  C   -0.000529  -0.000529
   347  C   -0.000576  -0.000576
   348  C   -0.000572  -0.000572
   349  C   -0.000226  -0.000226
   350  C   -0.000223  -0.000223
   351  C   -0.000481  -0.000481
   352  C   -0.000477  -0.000477
   353  C   -0.000469  -0.000469
   354  C   -0.000466  -0.000466
   355  C   -0.000253  -0.000253
   356  C   -0.000250  -0.000250
   357  C   -0.000457  -0.000457
   358  C   -0.000454  -0.000454
   359  C   -0.000464  -0.000464
   360  C   -0.000460  -0.000460
   361  C   -0.000244  -0.000244
   362  C   -0.000241  -0.000241
   363  C   -0.000503  -0.000503
   364  C   -0.000500  -0.000500
   365  C   -0.000504  -0.000504
   366  C   -0.000500  -0.000500
   367  C   -0.000214  -0.000214
   368  C   -0.000212  -0.000212
   369  C   -0.000700  -0.000700
   370  C   -0.000695  -0.000695
   371  C   -0.000527  -0.000527
   372  C   -0.000522  -0.000522
   373  C   -0.000498  -0.000499
   374  C   -0.000494  -0.000495
   375  C   -0.000305  -0.000529
   376  C   -0.000293  -0.000517
   377  C    0.009725   0.013935
   378  C    0.009728   0.013938
   379  C    0.009741   0.013949
   380  C    0.009728   0.013936
   381  C   -0.000286  -0.000510
   382  C   -0.000302  -0.000526
   383  C   -0.000477  -0.000477
   384  C   -0.000502  -0.000503
   385  C   -0.000506  -0.000506
   386  C   -0.000531  -0.000531
   387  C   -0.000679  -0.000679
   388  C   -0.000704  -0.000704
   389  C   -0.000193  -0.000193
   390  C   -0.000220  -0.000220
   391  C   -0.000483  -0.000483
   392  C   -0.000508  -0.000508
   393  C   -0.000482  -0.000482
   394  C   -0.000508  -0.000508
   395  C   -0.000222  -0.000222
   396  C   -0.000249  -0.000249
   397  C   -0.000442  -0.000442
   398  C   -0.000468  -0.000468
   399  C   -0.000436  -0.000436
   400  C   -0.000462  -0.000462
   401  C   -0.000232  -0.000232
   402  C   -0.000259  -0.000259
   403  C   -0.000447  -0.000447
   404  C   -0.000474  -0.000474
   405  C   -0.000459  -0.000459
   406  C   -0.000485  -0.000485
   407  C   -0.000204  -0.000204
   408  C   -0.000231  -0.000231
   409  C   -0.000554  -0.000554
   410  C   -0.000580  -0.000580
   411  C   -0.000512  -0.000512
   412  C   -0.000537  -0.000537
   413  C   -0.000222  -0.000222
   414  C   -0.000249  -0.000249
   415  C   -0.000837  -0.000837
   416  C   -0.000860  -0.000860
   417  C   -0.000812  -0.000824
   418  C   -0.000833  -0.000845
   419  C   -0.000885  -0.004857
   420  C   -0.000899  -0.004871
 
 EQQ=  0.00000000000     EQD=  0.00000000000     EDD= 0.377602693805E-01
 EQQ+QD+DD= 0.377602693805E-01
 
 1\1\GINC-CU08\SP\RB3LYP\6-311G(d)\C420H20\WANG\08-Jul-2025\0\\# B3LYP/
 6-311G* Pop=Hirshfeld NOSYMM\\From ../../cnt_5_5-21_opt.out\\0,1\C,0,2
 .811742,2.043313,1.16551\C,0,3.400496,0.721978,1.16558\C,0,2.769493,2.
 007417,3.631075\C,0,3.34549,0.714634,3.631109\C,0,2.786179,2.026278,6.
 095649\C,0,3.370602,0.714368,6.095669\C,0,2.782947,2.020583,8.567457\C
 ,0,3.364205,0.715742,8.567468\C,0,2.781652,2.018463,11.02773\C,0,3.361
 767,0.716162,11.027736\C,0,2.786104,2.025804,13.4965\C,0,3.370196,0.71
 4521,13.496504\C,0,2.781517,2.01829,15.964268\C,0,3.361561,0.716118,15
 .964271\C,0,2.783385,2.021213,18.425731\C,0,3.364982,0.715531,18.42573
 3\C,0,2.78532,2.024419,20.896096\C,0,3.368655,0.714813,20.896099\C,0,2
 .781072,2.017494,23.360863\C,0,3.360676,0.716294,23.360865\C,0,2.78476
 ,2.023487,25.824349\C,0,3.367585,0.715028,25.824351\C,0,2.784112,2.022
 419,28.295026\C,0,3.366353,0.715277,28.295028\C,0,2.781221,2.017781,30
 .757403\C,0,3.360972,0.716258,30.757405\C,0,2.785775,2.025235,33.2236\
 C,0,3.369537,0.714678,33.2236\C,0,2.782569,2.019954,35.693344\C,0,3.36
 3466,0.715866,35.693343\C,0,2.781941,2.019152,38.154109\C,0,3.362443,0
 .715974,38.154104\C,0,2.786417,2.026369,40.623662\C,0,3.370783,0.71450
 6,40.623653\C,0,2.780965,2.016891,43.090874\C,0,3.360113,0.716837,43.0
 90859\C,0,2.780904,2.020433,45.550683\C,0,3.362739,0.714443,45.550659\
 C,0,2.775144,2.022784,48.030475\C,0,3.360701,0.708563,48.030448\C,0,2.
 893787,2.038507,50.45351\C,0,3.451618,0.786144,50.453501\C,0,1.142335,
 3.34873,-0.033604\C,0,2.329955,2.66375,-0.033585\C,0,1.055739,3.266556
 ,2.389463\C,0,2.302077,2.547695,2.389488\C,0,1.06186,3.268135,4.869282
 \C,0,2.300368,2.553767,4.869297\C,0,1.064024,3.265329,7.329113\C,0,2.2
 96893,2.554195,7.329119\C,0,1.062871,3.276165,9.79633\C,0,2.306905,2.5
 58584,9.796333\C,0,1.063499,3.267713,12.26588\C,0,2.299307,2.55487,12.
 265881\C,0,1.063535,3.268726,14.72665\C,0,2.300199,2.555386,14.726651\
 C,0,1.063017,3.274864,17.196388\C,0,2.305803,2.557993,17.196389\C,0,1.
 063715,3.266185,19.662584\C,0,2.297947,2.554243,19.662585\C,0,1.063321
 ,3.271631,22.124964\C,0,2.30287,2.556621,22.124965\C,0,1.063212,3.2728
 81,24.595635\C,0,2.304008,2.557152,24.595636\C,0,1.06375,3.265892,27.0
 59124\C,0,2.297674,2.554125,27.059125\C,0,1.06311,3.273981,29.523892\C
 ,0,2.304992,2.557627,29.523893\C,0,1.063429,3.270273,31.994253\C,0,2.3
 01599,2.556062,31.994254\C,0,1.063636,3.266831,34.455722\C,0,2.298485,
 2.554536,34.455722\C,0,1.062926,3.275595,36.92349\C,0,2.306403,2.55832
 8,36.923489\C,0,1.063642,3.267076,39.392262\C,0,2.298621,2.554711,39.3
 92259\C,0,1.063438,3.269555,41.852549\C,0,2.300829,2.555803,41.852541\
 C,0,1.062688,3.276034,44.324365\C,0,2.306781,2.558428,44.324345\C,0,1.
 060253,3.250996,46.788967\C,0,2.286264,2.54381,46.788927\C,0,1.073255,
 3.304576,49.25455\C,0,2.326403,2.581928,49.254461\C,0,-1.074612,3.3038
 11,1.165453\C,0,0.364002,3.455116,1.165463\C,0,-1.053491,3.252721,3.63
 1048\C,0,0.354044,3.400793,3.631045\C,0,-1.066204,3.274363,6.095648\C,
 0,0.362075,3.424626,6.095644\C,0,-1.061773,3.269544,8.567457\C,0,0.358
 821,3.419011,8.567453\C,0,-1.060146,3.267651,11.027738\C,0,0.357682,3.
 416826,11.027735\C,0,-1.065731,3.274105,13.496505\C,0,0.361849,3.42429
 6,13.496503\C,0,-1.06001,3.267444,15.964269\C,0,0.357673,3.416597,15.9
 64268\C,0,-1.062204,3.270106,18.425735\C,0,0.35929,3.419653,18.425734\
 C,0,-1.064645,3.272921,20.896094\C,0,0.361111,3.42291,20.896094\C,0,-1
 .059379,3.266775,23.360861\C,0,0.357247,3.415808,23.360861\C,0,-1.0639
 24,3.27211,25.824349\C,0,0.360585,3.421967,25.824349\C,0,-1.063105,3.2
 71175,28.29502\C,0,0.359974,3.420883,28.29502\C,0,-1.05959,3.26702,30.
 757401\C,0,0.357388,3.416094,30.757401\C,0,-1.065255,3.273629,33.22359
 8\C,0,0.361535,3.423731,33.223597\C,0,-1.06123,3.268986,35.693338\C,0,
 0.358536,3.418358,35.693338\C,0,-1.060663,3.268159,38.154109\C,0,0.358
 117,3.417434,38.154109\C,0,-1.066139,3.274634,40.623661\C,0,0.362078,3
 .424896,40.623663\C,0,-1.058845,3.266582,43.090882\C,0,0.356555,3.4155
 01,43.090885\C,0,-1.062263,3.267607,45.55072\C,0,0.359603,3.417191,45.
 550721\C,0,-1.066342,3.262749,48.030568\C,0,0.36451,3.413271,48.03056\
 C,0,-1.044587,3.379715,50.453704\C,0,0.31888,3.52312,50.453703\C,0,-2.
 833194,2.121099,-0.033539\C,0,-1.813869,3.037941,-0.033592\C,0,-2.7816
 9,2.013357,2.389517\C,0,-1.711967,2.975531,2.389479\C,0,-2.781158,2.01
 9619,4.869326\C,0,-1.718184,2.97578,4.869299\C,0,-2.777776,2.020771,7.
 329137\C,0,-1.719634,2.972584,7.329129\C,0,-2.788407,2.022991,9.796345
 \C,0,-1.720679,2.983424,9.796342\C,0,-2.780171,2.020964,12.265891\C,0,
 -1.719495,2.975044,12.265887\C,0,-2.781122,2.021304,14.726654\C,0,-1.7
 19702,2.976037,14.726656\C,0,-2.787116,2.022705,17.196392\C,0,-1.72043
 8,2.982159,17.196391\C,0,-2.778652,2.020692,19.662587\C,0,-1.719307,2.
 97354,19.662585\C,0,-2.783945,2.022001,22.124965\C,0,-1.720036,2.97895
 ,22.124966\C,0,-2.785162,2.022287,24.595638\C,0,-1.720183,2.980197,24.
 595635\C,0,-2.778351,2.020648,27.059126\C,0,-1.719266,2.973254,27.0591
 24\C,0,-2.786228,2.022538,29.523894\C,0,-1.720318,2.981289,29.523893\C
 ,0,-2.782598,2.021702,31.994256\C,0,-1.719878,2.977589,31.994251\C,0,-
 2.779255,2.020842,34.455721\C,0,-1.71939,2.974172,34.455721\C,0,-2.787
 797,2.022879,36.923488\C,0,-1.720536,2.982874,36.923487\C,0,-2.779478,
 2.020943,39.392256\C,0,-1.719515,2.974385,39.392255\C,0,-2.781904,2.02
 1531,41.85253\C,0,-1.719881,2.976843,41.85254\C,0,-2.788327,2.022847,4
 4.324334\C,0,-1.720561,2.983332,44.32435\C,0,-2.765332,2.012824,46.788
 913\C,0,-1.713087,2.959364,46.788957\C,0,-2.812618,2.041783,49.25446\C
 ,0,-1.736997,3.009051,49.254547\C,0,-3.476304,-0.00093,1.165576\C,0,-3
 .175367,1.41401,1.165573\C,0,-3.420989,0.003332,3.631112\C,0,-3.126596
 ,1.387705,3.631104\C,0,-3.445478,-0.002109,6.095676\C,0,-3.146754,1.40
 2707,6.095676\C,0,-3.439486,0.000587,8.56747\C,0,-3.142358,1.397825,8.
 567472\C,0,-3.43718,0.001534,11.027742\C,0,-3.140611,1.396043,11.02774
 5\C,0,-3.445085,-0.001784,13.496506\C,0,-3.146463,1.40233,13.496508\C,
 0,-3.436959,0.001594,15.964271\C,0,-3.140399,1.395954,15.964272\C,0,-3
 .440186,0.000334,18.425737\C,0,-3.142821,1.398447,18.425738\C,0,-3.443
 631,-0.001112,20.896098\C,0,-3.14537,1.401199,20.896096\C,0,-3.436127,
 0.001997,23.360866\C,0,-3.139774,1.395311,23.360864\C,0,-3.442627,-0.0
 00669,25.824355\C,0,-3.144624,1.400413,25.824353\C,0,-3.441473,-0.0001
 76,28.295027\C,0,-3.143771,1.399497,28.295024\C,0,-3.436407,0.001884,3
 0.757408\C,0,-3.139985,1.395546,30.757405\C,0,-3.444464,-0.001453,33.2
 23604\C,0,-3.145993,1.401879,33.223601\C,0,-3.438768,0.00094,35.693344
 \C,0,-3.141775,1.397353,35.693339\C,0,-3.437788,0.001229,38.15411\C,0,
 -3.141014,1.396674,38.154107\C,0,-3.44565,-0.001966,40.623655\C,0,-3.1
 46916,1.40278,40.623652\C,0,-3.435694,0.002492,43.09086\C,0,-3.139656,
 1.394613,43.09086\C,0,-3.437779,-0.000413,45.550664\C,0,-3.140391,1.39
 8081,45.550674\C,0,-3.434581,-0.005774,48.030441\C,0,-3.135303,1.40155
 6,48.030449\C,0,-3.539896,0.051233,50.453451\C,0,-3.254678,1.392223,50
 .453465\C,0,-2.893787,-2.038507,-0.033514\C,0,-3.451618,-0.786144,-0.0
 33505\C,0,-2.775144,-2.022784,2.389521\C,0,-3.3607,-0.708563,2.389548\
 C,0,-2.780904,-2.020433,4.869313\C,0,-3.362739,-0.714443,4.869336\C,0,
 -2.780965,-2.016891,7.329122\C,0,-3.360113,-0.716837,7.329137\C,0,-2.7
 86417,-2.026368,9.796334\C,0,-3.370783,-0.714506,9.796343\C,0,-2.78194
 1,-2.019152,12.265887\C,0,-3.362443,-0.715974,12.265891\C,0,-2.782569,
 -2.019954,14.726652\C,0,-3.363466,-0.715866,14.726653\C,0,-2.785774,-2
 .025235,17.196395\C,0,-3.369536,-0.714678,17.196395\C,0,-2.781221,-2.0
 17781,19.662592\C,0,-3.360971,-0.716258,19.662591\C,0,-2.784112,-2.022
 419,22.12497\C,0,-3.366353,-0.715277,22.124968\C,0,-2.784759,-2.023487
 ,24.595647\C,0,-3.367585,-0.715028,24.595645\C,0,-2.781071,-2.017494,2
 7.059133\C,0,-3.360676,-0.716294,27.059131\C,0,-2.785319,-2.024419,29.
 5239\C,0,-3.368655,-0.714812,29.523897\C,0,-2.783385,-2.021212,31.9942
 65\C,0,-3.364982,-0.715531,31.994262\C,0,-2.781516,-2.018289,34.455727
 \C,0,-3.361561,-0.716118,34.455725\C,0,-2.786104,-2.025803,36.923496\C
 ,0,-3.370196,-0.714521,36.923491\C,0,-2.781651,-2.018462,39.392266\C,0
 ,-3.361767,-0.716162,39.39226\C,0,-2.782946,-2.020583,41.852539\C,0,-3
 .364205,-0.715742,41.852528\C,0,-2.786179,-2.026278,44.324347\C,0,-3.3
 70602,-0.714368,44.324327\C,0,-2.769493,-2.007417,46.78892\C,0,-3.3454
 89,-0.714634,46.788886\C,0,-2.811741,-2.043313,49.254486\C,0,-3.400496
 ,-0.721979,49.254416\C,0,-1.073255,-3.304576,1.165446\C,0,-2.326402,-2
 .581928,1.165535\C,0,-1.060253,-3.250996,3.631029\C,0,-2.286263,-2.543
 81,3.631069\C,0,-1.062687,-3.276034,6.095631\C,0,-2.306781,-2.558428,6
 .095651\C,0,-1.063437,-3.269555,8.567446\C,0,-2.300829,-2.555803,8.567
 455\C,0,-1.063642,-3.267076,11.027734\C,0,-2.298621,-2.554711,11.02773
 7\C,0,-1.062926,-3.275595,13.496505\C,0,-2.306402,-2.558328,13.496507\
 C,0,-1.063636,-3.266831,15.964274\C,0,-2.298485,-2.554536,15.964274\C,
 0,-1.063429,-3.270273,18.425743\C,0,-2.301598,-2.556062,18.425742\C,0,
 -1.063109,-3.273981,20.896104\C,0,-2.304992,-2.557627,20.896103\C,0,-1
 .06375,-3.265892,23.360872\C,0,-2.297674,-2.554125,23.360871\C,0,-1.06
 3212,-3.272881,25.824361\C,0,-2.304007,-2.557152,25.82436\C,0,-1.06332
 1,-3.271631,28.295032\C,0,-2.30287,-2.556621,28.29503\C,0,-1.063714,-3
 .266185,30.757412\C,0,-2.297946,-2.554243,30.757411\C,0,-1.063017,-3.2
 74864,33.223607\C,0,-2.305803,-2.557993,33.223607\C,0,-1.063534,-3.268
 726,35.693346\C,0,-2.300199,-2.555385,35.693345\C,0,-1.063498,-3.26771
 3,38.154115\C,0,-2.299306,-2.55487,38.154114\C,0,-1.062871,-3.276165,4
 0.623666\C,0,-2.306905,-2.558584,40.623662\C,0,-1.064024,-3.265329,43.
 090883\C,0,-2.296893,-2.554195,43.090876\C,0,-1.06186,-3.268135,45.550
 714\C,0,-2.300368,-2.553767,45.550699\C,0,-1.055739,-3.266556,48.03053
 3\C,0,-2.302077,-2.547695,48.030508\C,0,-1.142335,-3.34873,50.4536\C,0
 ,-2.329954,-2.66375,50.453581\C,0,1.044588,-3.379715,-0.033708\C,0,-0.
 31888,-3.52312,-0.033707\C,0,1.066342,-3.262749,2.389428\C,0,-0.36451,
 -3.413271,2.389436\C,0,1.062263,-3.267607,4.869276\C,0,-0.359602,-3.41
 7191,4.869275\C,0,1.058846,-3.266582,7.329114\C,0,-0.356555,-3.415501,
 7.329111\C,0,1.066139,-3.274634,9.796335\C,0,-0.362078,-3.424896,9.796
 333\C,0,1.060663,-3.268159,12.265887\C,0,-0.358117,-3.417434,12.265886
 \C,0,1.06123,-3.268985,14.726658\C,0,-0.358535,-3.418358,14.726658\C,0
 ,1.065255,-3.273629,17.196398\C,0,-0.361535,-3.423731,17.196399\C,0,1.
 05959,-3.26702,19.662594\C,0,-0.357387,-3.416094,19.662595\C,0,1.06310
 6,-3.271174,22.124975\C,0,-0.359974,-3.420883,22.124976\C,0,1.063924,-
 3.27211,24.595647\C,0,-0.360585,-3.421967,24.595647\C,0,1.059379,-3.26
 6774,27.059135\C,0,-0.357247,-3.415808,27.059135\C,0,1.064646,-3.27292
 ,29.523902\C,0,-0.36111,-3.42291,29.523902\C,0,1.062204,-3.270106,31.9
 94261\C,0,-0.35929,-3.419653,31.994261\C,0,1.06001,-3.267443,34.455727
 \C,0,-0.357673,-3.416597,34.455727\C,0,1.065731,-3.274104,36.923491\C,
 0,-0.361849,-3.424296,36.923492\C,0,1.060147,-3.267651,39.392258\C,0,-
 0.357682,-3.416826,39.392261\C,0,1.061773,-3.269544,41.852539\C,0,-0.3
 58821,-3.419011,41.852543\C,0,1.066205,-3.274363,44.324348\C,0,-0.3620
 75,-3.424626,44.324352\C,0,1.053491,-3.252721,46.788948\C,0,-0.354043,
 -3.400793,46.78895\C,0,1.074613,-3.303811,49.254543\C,0,-0.364002,-3.4
 55116,49.254532\C,0,2.812618,-2.041783,1.165536\C,0,1.736997,-3.009051
 ,1.165448\C,0,2.765333,-2.012824,3.631083\C,0,1.713087,-2.959364,3.631
 039\C,0,2.788328,-2.022847,6.095662\C,0,1.720561,-2.983332,6.095646\C,
 0,2.781904,-2.021531,8.567465\C,0,1.719881,-2.976843,8.567455\C,0,2.77
 9478,-2.020943,11.02774\C,0,1.719515,-2.974385,11.027741\C,0,2.787797,
 -2.022879,13.496508\C,0,1.720537,-2.982874,13.496509\C,0,2.779256,-2.0
 20842,15.964275\C,0,1.71939,-2.974172,15.964275\C,0,2.782599,-2.021702
 ,18.42574\C,0,1.719878,-2.977589,18.425745\C,0,2.786228,-2.022538,20.8
 96102\C,0,1.720319,-2.981289,20.896103\C,0,2.778351,-2.020647,23.36087
 \C,0,1.719266,-2.973254,23.360871\C,0,2.785163,-2.022287,25.824358\C,0
 ,1.720183,-2.980197,25.824361\C,0,2.783945,-2.022001,28.295031\C,0,1.7
 20036,-2.978949,28.29503\C,0,2.778652,-2.020692,30.757409\C,0,1.719308
 ,-2.973539,30.75741\C,0,2.787116,-2.022705,33.223604\C,0,1.720438,-2.9
 82159,33.223605\C,0,2.781123,-2.021304,35.693342\C,0,1.719702,-2.97603
 7,35.69334\C,0,2.780171,-2.020964,38.154105\C,0,1.719495,-2.975044,38.
 154109\C,0,2.788407,-2.022991,40.623651\C,0,1.720679,-2.983424,40.6236
 54\C,0,2.777777,-2.020771,43.090858\C,0,1.719634,-2.972584,43.090867\C
 ,0,2.781159,-2.019619,45.55067\C,0,1.718184,-2.97578,45.550697\C,0,2.7
 8169,-2.013357,48.030479\C,0,1.711968,-2.975531,48.030516\C,0,2.833194
 ,-2.1211,50.453535\C,0,1.813869,-3.037941,50.453587\C,0,3.539897,-0.05
 1233,-0.033455\C,0,3.254678,-1.392223,-0.033469\C,0,3.434581,0.005774,
 2.389554\C,0,3.135303,-1.401556,2.389547\C,0,3.437779,0.000413,4.86933
 1\C,0,3.140392,-1.398081,4.869322\C,0,3.435695,-0.002492,7.329136\C,0,
 3.139657,-1.394613,7.329136\C,0,3.445651,0.001966,9.79634\C,0,3.146916
 ,-1.40278,9.796344\C,0,3.437788,-0.001229,12.265886\C,0,3.141014,-1.39
 6673,12.265889\C,0,3.438768,-0.00094,14.726652\C,0,3.141775,-1.397353,
 14.726657\C,0,3.444464,0.001454,17.196392\C,0,3.145994,-1.401879,17.19
 6395\C,0,3.436408,-0.001884,19.662588\C,0,3.139985,-1.395546,19.662591
 \C,0,3.441473,0.000176,22.124969\C,0,3.143771,-1.399497,22.124972\C,0,
 3.442627,0.000669,24.595641\C,0,3.144625,-1.400413,24.595643\C,0,3.436
 127,-0.001997,27.05913\C,0,3.139775,-1.395311,27.059132\C,0,3.443632,0
 .001113,29.523898\C,0,3.145371,-1.401199,29.523899\C,0,3.440186,-0.000
 334,31.994259\C,0,3.142821,-1.398447,31.994258\C,0,3.43696,-0.001594,3
 4.455724\C,0,3.140399,-1.395954,34.455724\C,0,3.445085,0.001784,36.923
 49\C,0,3.146463,-1.40233,36.923487\C,0,3.43718,-0.001534,39.392254\C,0
 ,3.140611,-1.396042,39.39225\C,0,3.439486,-0.000587,41.852526\C,0,3.14
 2359,-1.397825,41.852524\C,0,3.445479,0.002109,44.32432\C,0,3.146754,-
 1.402707,44.32432\C,0,3.42099,-0.003333,46.788884\C,0,3.126596,-1.3877
 05,46.788892\C,0,3.476304,0.00093,49.254419\C,0,3.175367,-1.41401,49.2
 54423\H,0,2.756856,2.553112,51.399529\H,0,3.742549,0.340145,51.399529\
 H,0,0.72892,3.684225,-0.979672\H,0,2.827376,2.473876,-0.979652\H,0,-1.
 57621,3.407992,51.399795\H,0,0.832979,3.6613,51.399812\H,0,-3.280404,1
 .832012,-0.979564\H,0,-1.479332,3.4521,-0.979677\H,0,-3.731912,-0.4454
 89,51.399457\H,0,-3.227842,1.924024,51.399506\H,0,-2.756855,-2.553112,
 -0.979534\H,0,-3.742549,-0.340145,-0.979533\H,0,-0.72892,-3.684225,51.
 399668\H,0,-2.827376,-2.473876,51.399648\H,0,1.576211,-3.407992,-0.979
 799\H,0,-0.832978,-3.661301,-0.979816\H,0,3.280404,-1.832012,51.39956\
 H,0,1.479332,-3.4521,51.399673\H,0,3.731912,0.445489,-0.979461\H,0,3.2
 27842,-1.924024,-0.979511\\Version=ES64L-G16RevB.01\HF=-16021.2274812\
 RMSD=8.677e-09\Dipole=-0.0000008,0.0000003,0.0000783\Quadrupole=-213.6
 654408,-213.6744662,427.339907,0.0017617,-0.000011,-0.0170228\PG=C01 [
 X(C420H20)]\\@


 I FIND THAT THE THREE TRULY GREAT TIMES FOR THINKING THOUGHTS
 ARE WHEN I AM STANDING IN THE SHOWER, SITTING ON THE JOHN, OR WALKING.

                                    -- COLIN FLETCHER
 Job cpu time:       4 days 10 hours 11 minutes 53.5 seconds.
 Elapsed time:       0 days  3 hours 48 minutes 14.0 seconds.
 File lengths (MBytes):  RWF=  31048 Int=      0 D2E=      0 Chk=   3326 Scr=      1
 Normal termination of Gaussian 16 at Tue Jul  8 12:33:14 2025.
