 Entering Gaussian System, Link 0=g16
 Initial command:
 /opt/software/g16/l1.exe "/tmp/cnt_8_8-2_sgp-34281.tmp/Gau-69383.inp" -scrdir="/tmp/cnt_8_8-2_sgp-34281.tmp/"
 Entering Link 1 = /opt/software/g16/l1.exe PID=     69384.
  
 Copyright (c) 1988-2017, Gaussian, Inc.  All Rights Reserved.
  
 This is part of the Gaussian(R) 16 program.  It is based on
 the Gaussian(R) 09 system (copyright 2009, Gaussian, Inc.),
 the Gaussian(R) 03 system (copyright 2003, Gaussian, Inc.),
 the Gaussian(R) 98 system (copyright 1998, Gaussian, Inc.),
 the Gaussian(R) 94 system (copyright 1995, Gaussian, Inc.),
 the Gaussian 92(TM) system (copyright 1992, Gaussian, Inc.),
 the Gaussian 90(TM) system (copyright 1990, Gaussian, Inc.),
 the Gaussian 88(TM) system (copyright 1988, Gaussian, Inc.),
 the Gaussian 86(TM) system (copyright 1986, Carnegie Mellon
 University), and the Gaussian 82(TM) system (copyright 1983,
 Carnegie Mellon University). Gaussian is a federally registered
 trademark of Gaussian, Inc.
  
 This software contains proprietary and confidential information,
 including trade secrets, belonging to Gaussian, Inc.
  
 This software is provided under written license and may be
 used, copied, transmitted, or stored only in accord with that
 written license.
  
 The following legend is applicable only to US Government
 contracts under FAR:
  
                    RESTRICTED RIGHTS LEGEND
  
 Use, reproduction and disclosure by the US Government is
 subject to restrictions as set forth in subparagraphs (a)
 and (c) of the Commercial Computer Software - Restricted
 Rights clause in FAR 52.227-19.
  
 Gaussian, Inc.
 340 Quinnipiac St., Bldg. 40, Wallingford CT 06492
  
  
 ---------------------------------------------------------------
 Warning -- This program may not be used in any manner that
 competes with the business of Gaussian, Inc. or will provide
 assistance to any competitor of Gaussian, Inc.  The licensee
 of this program is prohibited from giving any competitor of
 Gaussian, Inc. access to this program.  By using this program,
 the user acknowledges that Gaussian, Inc. is engaged in the
 business of creating and licensing software in the field of
 computational chemistry and represents and warrants to the
 licensee that it is not a competitor of Gaussian, Inc. and that
 it will not use this program in any manner prohibited above.
 ---------------------------------------------------------------
  

 Cite this work as:
 Gaussian 16, Revision B.01,
 M. J. Frisch, G. W. Trucks, H. B. Schlegel, G. E. Scuseria, 
 M. A. Robb, J. R. Cheeseman, G. Scalmani, V. Barone, 
 G. A. Petersson, H. Nakatsuji, X. Li, M. Caricato, A. V. Marenich, 
 J. Bloino, B. G. Janesko, R. Gomperts, B. Mennucci, H. P. Hratchian, 
 J. V. Ortiz, A. F. Izmaylov, J. L. Sonnenberg, D. Williams-Young, 
 F. Ding, F. Lipparini, F. Egidi, J. Goings, B. Peng, A. Petrone, 
 T. Henderson, D. Ranasinghe, V. G. Zakrzewski, J. Gao, N. Rega, 
 G. Zheng, W. Liang, M. Hada, M. Ehara, K. Toyota, R. Fukuda, 
 J. Hasegawa, M. Ishida, T. Nakajima, Y. Honda, O. Kitao, H. Nakai, 
 T. Vreven, K. Throssell, J. A. Montgomery, Jr., J. E. Peralta, 
 F. Ogliaro, M. J. Bearpark, J. J. Heyd, E. N. Brothers, K. N. Kudin, 
 V. N. Staroverov, T. A. Keith, R. Kobayashi, J. Normand, 
 K. Raghavachari, A. P. Rendell, J. C. Burant, S. S. Iyengar, 
 J. Tomasi, M. Cossi, J. M. Millam, M. Klene, C. Adamo, R. Cammi, 
 J. W. Ochterski, R. L. Martin, K. Morokuma, O. Farkas, 
 J. B. Foresman, and D. J. Fox, Gaussian, Inc., Wallingford CT, 2016.
 
 ******************************************
 Gaussian 16:  ES64L-G16RevB.01 20-Dec-2017
                 8-Jul-2025 
 ******************************************
 %nproc=18
 Will use up to   18 processors via shared memory.
 ------------------------------------
 # B3LYP/6-311G* Pop=Hirshfeld NOSYMM
 ------------------------------------
 1/38=1,172=1/1;
 2/12=2,15=1,17=6,18=5,40=1/2;
 3/5=4,6=6,7=1,11=2,25=1,30=1,74=-5/1,2,3;
 4//1;
 5/5=2,38=5/2;
 6/7=2,8=2,9=2,10=2,28=1,79=1/1;
 99/5=1,9=1/99;
 ----------------------------
 From ../../cnt_8_8-2_opt.out
 ----------------------------
 Symbolic Z-matrix:
 Charge =  0 Multiplicity = 1
 6                     5.09274   2.11451   1.23184 
 6                     5.4674    0.71522   1.2318 
 6                     5.15415   2.08864   3.66634 
 6                     5.50776   0.76827   3.66631 
 6                     3.96238   3.90185   0.02296 
 6                     4.79467   2.81757   0.02295 
 6                     3.89578   3.90221   2.45749 
 6                     4.77782   2.75312   2.45747 
 6                     2.1057    5.09562   1.23182 
 6                     3.36033   4.37156   1.23185 
 6                     2.16731   5.12075   3.66634 
 6                     3.35119   4.43748   3.66637 
 6                     0.04265   5.56036   0.02288 
 6                     1.39782   5.38175   0.02289 
 6                    -0.00469   5.51385   2.45742 
 6                     1.43145   5.32452   2.45743 
 6                    -2.11451   5.09274   1.23184 
 6                    -0.71522   5.4674    1.2318 
 6                    -2.08864   5.15415   3.66634 
 6                    -0.76827   5.50776   3.66631 
 6                    -3.90185   3.96237   0.02296 
 6                    -2.81757   4.79467   0.02295 
 6                    -3.90221   3.89578   2.45749 
 6                    -2.75312   4.77782   2.45747 
 6                    -5.09562   2.1057    1.23182 
 6                    -4.37155   3.36033   1.23185 
 6                    -5.12075   2.16731   3.66634 
 6                    -4.43748   3.35118   3.66637 
 6                    -5.56036   0.04265   0.02288 
 6                    -5.38175   1.39782   0.02289 
 6                    -5.51385  -0.00469   2.45742 
 6                    -5.32452   1.43145   2.45743 
 6                    -5.09274  -2.11451   1.23184 
 6                    -5.4674   -0.71522   1.2318 
 6                    -5.15415  -2.08864   3.66634 
 6                    -5.50776  -0.76827   3.66631 
 6                    -3.96237  -3.90185   0.02296 
 6                    -4.79467  -2.81757   0.02295 
 6                    -3.89578  -3.90221   2.45749 
 6                    -4.77782  -2.75312   2.45747 
 6                    -2.1057   -5.09562   1.23182 
 6                    -3.36033  -4.37155   1.23185 
 6                    -2.16731  -5.12075   3.66634 
 6                    -3.35118  -4.43748   3.66637 
 6                    -0.04265  -5.56036   0.02288 
 6                    -1.39782  -5.38175   0.02289 
 6                     0.0047   -5.51385   2.45742 
 6                    -1.43145  -5.32452   2.45743 
 6                     2.11451  -5.09274   1.23184 
 6                     0.71522  -5.4674    1.2318 
 6                     2.08864  -5.15415   3.66634 
 6                     0.76827  -5.50776   3.66631 
 6                     3.90185  -3.96237   0.02296 
 6                     2.81757  -4.79467   0.02295 
 6                     3.90221  -3.89578   2.45749 
 6                     2.75312  -4.77782   2.45747 
 6                     5.09563  -2.1057    1.23182 
 6                     4.37156  -3.36033   1.23185 
 6                     5.12075  -2.16731   3.66634 
 6                     4.43748  -3.35118   3.66637 
 6                     5.56036  -0.04265   0.02288 
 6                     5.38175  -1.39782   0.02289 
 6                     5.51385   0.00469   2.45742 
 6                     5.32452  -1.43145   2.45743 
 1                     5.07552   2.60655   4.61592 
 1                     5.69851   0.28034   4.61587 
 1                     3.69143   4.3502   -0.9266 
 1                     5.15769   2.43989  -0.92662 
 1                     1.74532   5.43113   4.61591 
 1                     3.83101   4.22735   4.61596 
 1                    -0.46594   5.68565  -0.92671 
 1                     1.92153   5.371    -0.92669 
 1                    -2.60655   5.07552   4.61592 
 1                    -0.28034   5.69851   4.61587 
 1                    -4.35019   3.69143  -0.9266 
 1                    -2.43989   5.15769  -0.92662 
 1                    -5.43113   1.74532   4.61591 
 1                    -4.22735   3.83101   4.61596 
 1                    -5.68565  -0.46595  -0.92671 
 1                    -5.371     1.92153  -0.92669 
 1                    -5.07552  -2.60655   4.61592 
 1                    -5.69851  -0.28034   4.61587 
 1                    -3.69143  -4.3502   -0.9266 
 1                    -5.15769  -2.43989  -0.92662 
 1                    -1.74532  -5.43113   4.61591 
 1                    -3.831    -4.22735   4.61596 
 1                     0.46595  -5.68565  -0.92671 
 1                    -1.92153  -5.371    -0.92669 
 1                     2.60655  -5.07552   4.61592 
 1                     0.28034  -5.69851   4.61587 
 1                     4.3502   -3.69143  -0.9266 
 1                     2.43989  -5.15769  -0.92662 
 1                     5.43113  -1.74532   4.61591 
 1                     4.22735  -3.83101   4.61596 
 1                     5.68565   0.46595  -0.92671 
 1                     5.371    -1.92153  -0.92669 
 
 Symmetry turned off by external request.
 This structure is nearly, but not quite of a higher symmetry.
 Consider Symm=Loose if the higher symmetry is desired.
 Stoichiometry    C64H32
 Framework group  C2[X(C64H32)]
 Deg. of freedom   142
 Full point group                 C2      NOp   2
                          Input orientation:                          
 ---------------------------------------------------------------------
 Center     Atomic      Atomic             Coordinates (Angstroms)
 Number     Number       Type             X           Y           Z
 ---------------------------------------------------------------------
      1          6           0        5.092744    2.114513    1.231837
      2          6           0        5.467404    0.715217    1.231798
      3          6           0        5.154153    2.088641    3.666344
      4          6           0        5.507763    0.768273    3.666315
      5          6           0        3.962375    3.901849    0.022964
      6          6           0        4.794670    2.817567    0.022953
      7          6           0        3.895782    3.902210    2.457485
      8          6           0        4.777825    2.753123    2.457471
      9          6           0        2.105699    5.095624    1.231816
     10          6           0        3.360330    4.371556    1.231854
     11          6           0        2.167309    5.120751    3.666339
     12          6           0        3.351185    4.437478    3.666374
     13          6           0        0.042649    5.560363    0.022879
     14          6           0        1.397817    5.381750    0.022889
     15          6           0       -0.004693    5.513850    2.457423
     16          6           0        1.431446    5.324519    2.457434
     17          6           0       -2.114512    5.092743    1.231837
     18          6           0       -0.715216    5.467404    1.231798
     19          6           0       -2.088640    5.154153    3.666344
     20          6           0       -0.768272    5.507763    3.666315
     21          6           0       -3.901848    3.962374    0.022964
     22          6           0       -2.817566    4.794669    0.022953
     23          6           0       -3.902209    3.895782    2.457485
     24          6           0       -2.753122    4.777824    2.457471
     25          6           0       -5.095623    2.105698    1.231816
     26          6           0       -4.371555    3.360330    1.231854
     27          6           0       -5.120749    2.167308    3.666339
     28          6           0       -4.437477    3.351184    3.666374
     29          6           0       -5.560362    0.042648    0.022879
     30          6           0       -5.381749    1.397817    0.022889
     31          6           0       -5.513849   -0.004694    2.457423
     32          6           0       -5.324518    1.431446    2.457434
     33          6           0       -5.092742   -2.114513    1.231837
     34          6           0       -5.467403   -0.715217    1.231798
     35          6           0       -5.154152   -2.088641    3.666344
     36          6           0       -5.507762   -0.768272    3.666315
     37          6           0       -3.962373   -3.901848    0.022964
     38          6           0       -4.794668   -2.817567    0.022953
     39          6           0       -3.895781   -3.902210    2.457485
     40          6           0       -4.777823   -2.753123    2.457471
     41          6           0       -2.105697   -5.095624    1.231816
     42          6           0       -3.360329   -4.371555    1.231854
     43          6           0       -2.167307   -5.120750    3.666339
     44          6           0       -3.351183   -4.437478    3.666374
     45          6           0       -0.042647   -5.560362    0.022879
     46          6           0       -1.397816   -5.381750    0.022888
     47          6           0        0.004695   -5.513850    2.457423
     48          6           0       -1.431445   -5.324519    2.457434
     49          6           0        2.114514   -5.092743    1.231837
     50          6           0        0.715218   -5.467404    1.231798
     51          6           0        2.088642   -5.154153    3.666344
     52          6           0        0.768273   -5.507763    3.666315
     53          6           0        3.901849   -3.962374    0.022964
     54          6           0        2.817568   -4.794669    0.022953
     55          6           0        3.902210   -3.895781    2.457485
     56          6           0        2.753124   -4.777824    2.457471
     57          6           0        5.095625   -2.105698    1.231816
     58          6           0        4.371556   -3.360329    1.231853
     59          6           0        5.120751   -2.167308    3.666339
     60          6           0        4.437479   -3.351184    3.666374
     61          6           0        5.560363   -0.042648    0.022879
     62          6           0        5.381750   -1.397816    0.022888
     63          6           0        5.513850    0.004694    2.457423
     64          6           0        5.324520   -1.431445    2.457434
     65          1           0        5.075523    2.606546    4.615921
     66          1           0        5.698507    0.280341    4.615868
     67          1           0        3.691427    4.350196   -0.926599
     68          1           0        5.157691    2.439891   -0.926615
     69          1           0        1.745324    5.431133    4.615906
     70          1           0        3.831005    4.227349    4.615962
     71          1           0       -0.465944    5.685647   -0.926710
     72          1           0        1.921529    5.370998   -0.926691
     73          1           0       -2.606546    5.075523    4.615921
     74          1           0       -0.280340    5.698507    4.615869
     75          1           0       -4.350194    3.691426   -0.926599
     76          1           0       -2.439890    5.157690   -0.926615
     77          1           0       -5.431132    1.745324    4.615906
     78          1           0       -4.227348    3.831005    4.615962
     79          1           0       -5.685646   -0.465945   -0.926710
     80          1           0       -5.370997    1.921528   -0.926690
     81          1           0       -5.075522   -2.606546    4.615921
     82          1           0       -5.698506   -0.280341    4.615869
     83          1           0       -3.691425   -4.350195   -0.926599
     84          1           0       -5.157689   -2.439891   -0.926615
     85          1           0       -1.745322   -5.431133    4.615906
     86          1           0       -3.831004   -4.227348    4.615962
     87          1           0        0.465945   -5.685646   -0.926710
     88          1           0       -1.921527   -5.370997   -0.926691
     89          1           0        2.606547   -5.075523    4.615921
     90          1           0        0.280342   -5.698507    4.615868
     91          1           0        4.350196   -3.691426   -0.926599
     92          1           0        2.439892   -5.157690   -0.926615
     93          1           0        5.431134   -1.745323    4.615906
     94          1           0        4.227349   -3.831005    4.615962
     95          1           0        5.685647    0.465945   -0.926711
     96          1           0        5.370998   -1.921528   -0.926691
 ---------------------------------------------------------------------
 Rotational constants (GHZ):           0.0361871           0.0361871           0.0205447
 Standard basis: 6-311G(d) (5D, 7F)
  1248 basis functions,  2208 primitive gaussians,  1312 cartesian basis functions
   208 alpha electrons      208 beta electrons
       nuclear repulsion energy      8078.4374100598 Hartrees.
 NAtoms=   96 NActive=   96 NUniq=   96 SFac= 1.00D+00 NAtFMM=   60 NAOKFM=T Big=T
 Integral buffers will be    131072 words long.
 Raffenetti 2 integral format.
 Two-electron integral symmetry is turned off.
 One-electron integrals computed using PRISM.
 NBasis=  1248 RedAO= T EigKep=  3.58D-05  NBF=  1248
 NBsUse=  1248 1.00D-06 EigRej= -1.00D+00 NBFU=  1248
 ExpMin= 1.03D-01 ExpMax= 4.56D+03 ExpMxC= 6.82D+02 IAcc=3 IRadAn=         5 AccDes= 0.00D+00
 Harris functional with IExCor=  402 and IRadAn=       5 diagonalized for initial guess.
 HarFok:  IExCor=  402 AccDes= 0.00D+00 IRadAn=         5 IDoV= 1 UseB2=F ITyADJ=14
 ICtDFT=  3500011 ScaDFX=  1.000000  1.000000  1.000000  1.000000
 FoFCou: FMM=F IPFlag=           0 FMFlag=      100000 FMFlg1=        2001
         NFxFlg=           0 DoJE=T BraDBF=F KetDBF=T FulRan=T
         wScrn=  0.000000 ICntrl=       500 IOpCl=  0 I1Cent=   200000004 NGrid=           0
         NMat0=    1 NMatS0=      1 NMatT0=    0 NMatD0=    1 NMtDS0=    0 NMtDT0=    0
 Symmetry not used in FoFCou.
 Requested convergence on RMS density matrix=1.00D-08 within 128 cycles.
 Requested convergence on MAX density matrix=1.00D-06.
 Requested convergence on             energy=1.00D-06.
 No special actions if energy rises.
 Integral accuracy reduced to 1.0D-05 until final iterations.
 Problem detected with inexpensive integrals.
 Switching to full accuracy and repeating last cycle.
 EnCoef did     1 forward-backward iterations
 SCF Done:  E(RB3LYP) =  -2458.63413128     A.U. after   12 cycles
            NFock= 12  Conv=0.54D-08     -V/T= 2.0044

 **********************************************************************

            Population analysis using the SCF Density.

 **********************************************************************

 Alpha  occ. eigenvalues --  -10.19325 -10.19324 -10.19324 -10.19323 -10.19323
 Alpha  occ. eigenvalues --  -10.19320 -10.19320 -10.19316 -10.19316 -10.19310
 Alpha  occ. eigenvalues --  -10.19310 -10.19304 -10.19304 -10.19297 -10.19297
 Alpha  occ. eigenvalues --  -10.19292 -10.19282 -10.19277 -10.19277 -10.19270
 Alpha  occ. eigenvalues --  -10.19270 -10.19263 -10.19263 -10.19256 -10.19256
 Alpha  occ. eigenvalues --  -10.19251 -10.19251 -10.19248 -10.19247 -10.19245
 Alpha  occ. eigenvalues --  -10.19245 -10.19245 -10.18156 -10.18156 -10.18156
 Alpha  occ. eigenvalues --  -10.18156 -10.18155 -10.18155 -10.18155 -10.18155
 Alpha  occ. eigenvalues --  -10.18155 -10.18155 -10.18155 -10.18155 -10.18155
 Alpha  occ. eigenvalues --  -10.18154 -10.18154 -10.18154 -10.18091 -10.18091
 Alpha  occ. eigenvalues --  -10.18091 -10.18091 -10.18091 -10.18091 -10.18091
 Alpha  occ. eigenvalues --  -10.18091 -10.18091 -10.18091 -10.18091 -10.18091
 Alpha  occ. eigenvalues --  -10.18090 -10.18090 -10.18090 -10.18090  -0.90389
 Alpha  occ. eigenvalues --   -0.90032  -0.90032  -0.88970  -0.88970  -0.87224
 Alpha  occ. eigenvalues --   -0.87224  -0.84849  -0.84849  -0.82120  -0.82094
 Alpha  occ. eigenvalues --   -0.82094  -0.81838  -0.81838  -0.81156  -0.81156
 Alpha  occ. eigenvalues --   -0.78586  -0.78586  -0.77427  -0.77427  -0.76891
 Alpha  occ. eigenvalues --   -0.76890  -0.74714  -0.74714  -0.73687  -0.73687
 Alpha  occ. eigenvalues --   -0.72806  -0.72806  -0.71841  -0.71841  -0.71634
 Alpha  occ. eigenvalues --   -0.70791  -0.66392  -0.64679  -0.64679  -0.64263
 Alpha  occ. eigenvalues --   -0.64263  -0.63636  -0.63636  -0.63254  -0.63254
 Alpha  occ. eigenvalues --   -0.62669  -0.62669  -0.62660  -0.60470  -0.60470
 Alpha  occ. eigenvalues --   -0.59402  -0.59401  -0.56414  -0.56414  -0.54999
 Alpha  occ. eigenvalues --   -0.54999  -0.54349  -0.53822  -0.53822  -0.53426
 Alpha  occ. eigenvalues --   -0.51918  -0.51910  -0.51910  -0.51716  -0.51716
 Alpha  occ. eigenvalues --   -0.50671  -0.50670  -0.50651  -0.50651  -0.48271
 Alpha  occ. eigenvalues --   -0.48270  -0.47877  -0.47877  -0.47835  -0.47835
 Alpha  occ. eigenvalues --   -0.45507  -0.45507  -0.45172  -0.45062  -0.45062
 Alpha  occ. eigenvalues --   -0.44476  -0.44476  -0.43905  -0.43904  -0.43388
 Alpha  occ. eigenvalues --   -0.42860  -0.42618  -0.42618  -0.42528  -0.42528
 Alpha  occ. eigenvalues --   -0.42408  -0.42407  -0.41812  -0.41812  -0.41631
 Alpha  occ. eigenvalues --   -0.41631  -0.41139  -0.41139  -0.40796  -0.40796
 Alpha  occ. eigenvalues --   -0.40687  -0.40687  -0.40684  -0.40683  -0.40239
 Alpha  occ. eigenvalues --   -0.39871  -0.39871  -0.38875  -0.38875  -0.37017
 Alpha  occ. eigenvalues --   -0.37017  -0.36471  -0.36471  -0.35288  -0.35287
 Alpha  occ. eigenvalues --   -0.35038  -0.35038  -0.34053  -0.34053  -0.33783
 Alpha  occ. eigenvalues --   -0.33783  -0.33404  -0.33119  -0.32738  -0.32738
 Alpha  occ. eigenvalues --   -0.32201  -0.32201  -0.31722  -0.31722  -0.31678
 Alpha  occ. eigenvalues --   -0.31678  -0.31492  -0.29321  -0.29321  -0.27372
 Alpha  occ. eigenvalues --   -0.27372  -0.26841  -0.26840  -0.24973  -0.24973
 Alpha  occ. eigenvalues --   -0.22746  -0.22745  -0.22463  -0.22463  -0.21188
 Alpha  occ. eigenvalues --   -0.21188  -0.20635  -0.19963
 Alpha virt. eigenvalues --   -0.07552  -0.05777  -0.05583  -0.05583  -0.04904
 Alpha virt. eigenvalues --   -0.04904  -0.04875  -0.04875  -0.03447  -0.03447
 Alpha virt. eigenvalues --   -0.01280  -0.01279  -0.00176  -0.00175   0.01337
 Alpha virt. eigenvalues --    0.01337   0.03641   0.04048   0.04048   0.04508
 Alpha virt. eigenvalues --    0.04780   0.04782   0.04786   0.04786   0.05033
 Alpha virt. eigenvalues --    0.05033   0.05615   0.05615   0.05810   0.05810
 Alpha virt. eigenvalues --    0.07328   0.07328   0.07657   0.07657   0.07723
 Alpha virt. eigenvalues --    0.07723   0.08238   0.08238   0.08789   0.09335
 Alpha virt. eigenvalues --    0.09335   0.11382   0.11382   0.12483   0.12483
 Alpha virt. eigenvalues --    0.13793   0.13793   0.14489   0.14495   0.14904
 Alpha virt. eigenvalues --    0.14904   0.16506   0.16506   0.16838   0.16841
 Alpha virt. eigenvalues --    0.17121   0.17124   0.17457   0.19671   0.19802
 Alpha virt. eigenvalues --    0.19802   0.20247   0.20247   0.21504   0.21504
 Alpha virt. eigenvalues --    0.21569   0.21569   0.22672   0.22951   0.22951
 Alpha virt. eigenvalues --    0.23168   0.23168   0.23458   0.23460   0.24794
 Alpha virt. eigenvalues --    0.24795   0.24962   0.25079   0.25082   0.25432
 Alpha virt. eigenvalues --    0.25880   0.25880   0.25942   0.26072   0.26072
 Alpha virt. eigenvalues --    0.27196   0.27196   0.27463   0.27463   0.27620
 Alpha virt. eigenvalues --    0.27620   0.29582   0.29582   0.30311   0.30312
 Alpha virt. eigenvalues --    0.30441   0.30441   0.30558   0.30558   0.31635
 Alpha virt. eigenvalues --    0.31960   0.32130   0.32130   0.33064   0.33064
 Alpha virt. eigenvalues --    0.33916   0.33916   0.34240   0.34240   0.34427
 Alpha virt. eigenvalues --    0.34599   0.34599   0.35507   0.35507   0.35857
 Alpha virt. eigenvalues --    0.35925   0.35926   0.36434   0.36434   0.36469
 Alpha virt. eigenvalues --    0.36469   0.36501   0.36743   0.36743   0.37490
 Alpha virt. eigenvalues --    0.37492   0.38142   0.38142   0.38585   0.38585
 Alpha virt. eigenvalues --    0.38793   0.39804   0.39804   0.39821   0.39823
 Alpha virt. eigenvalues --    0.40022   0.40210   0.40210   0.40330   0.40330
 Alpha virt. eigenvalues --    0.41087   0.41088   0.41285   0.41286   0.41669
 Alpha virt. eigenvalues --    0.41670   0.42184   0.42401   0.42401   0.42734
 Alpha virt. eigenvalues --    0.42737   0.42798   0.42798   0.42813   0.42815
 Alpha virt. eigenvalues --    0.42961   0.43152   0.43152   0.43180   0.43180
 Alpha virt. eigenvalues --    0.43287   0.43287   0.43540   0.43603   0.44037
 Alpha virt. eigenvalues --    0.44037   0.44073   0.44074   0.44707   0.44708
 Alpha virt. eigenvalues --    0.44922   0.45506   0.45506   0.45696   0.45696
 Alpha virt. eigenvalues --    0.46222   0.46222   0.46835   0.46835   0.47123
 Alpha virt. eigenvalues --    0.47126   0.47518   0.47519   0.47540   0.47540
 Alpha virt. eigenvalues --    0.47589   0.47589   0.47788   0.47890   0.47899
 Alpha virt. eigenvalues --    0.47899   0.48120   0.48120   0.48146   0.48146
 Alpha virt. eigenvalues --    0.48219   0.48219   0.48996   0.48996   0.49249
 Alpha virt. eigenvalues --    0.49250   0.49748   0.49749   0.50454   0.50454
 Alpha virt. eigenvalues --    0.50499   0.50501   0.50728   0.50728   0.51426
 Alpha virt. eigenvalues --    0.51426   0.51464   0.51464   0.52025   0.52213
 Alpha virt. eigenvalues --    0.52213   0.54199   0.54199   0.54771   0.54776
 Alpha virt. eigenvalues --    0.56078   0.56081   0.56393   0.56396   0.56595
 Alpha virt. eigenvalues --    0.56595   0.57605   0.58015   0.58015   0.58311
 Alpha virt. eigenvalues --    0.58311   0.58648   0.58648   0.58844   0.60013
 Alpha virt. eigenvalues --    0.60013   0.60913   0.60938   0.60938   0.60986
 Alpha virt. eigenvalues --    0.61002   0.61002   0.61173   0.61176   0.61968
 Alpha virt. eigenvalues --    0.61970   0.61970   0.61970   0.62267   0.62424
 Alpha virt. eigenvalues --    0.62424   0.62587   0.62587   0.62730   0.62730
 Alpha virt. eigenvalues --    0.63506   0.63506   0.64553   0.64553   0.64954
 Alpha virt. eigenvalues --    0.64956   0.66151   0.66162   0.66162   0.66835
 Alpha virt. eigenvalues --    0.66835   0.66970   0.66971   0.67818   0.67820
 Alpha virt. eigenvalues --    0.67827   0.67828   0.69093   0.69093   0.69258
 Alpha virt. eigenvalues --    0.69258   0.69442   0.69442   0.70203   0.71119
 Alpha virt. eigenvalues --    0.71604   0.71604   0.72782   0.72783   0.73934
 Alpha virt. eigenvalues --    0.74285   0.74285   0.75145   0.75243   0.75244
 Alpha virt. eigenvalues --    0.75427   0.75427   0.75503   0.75503   0.75738
 Alpha virt. eigenvalues --    0.75739   0.75746   0.75749   0.75793   0.75793
 Alpha virt. eigenvalues --    0.76174   0.76400   0.76402   0.76984   0.76984
 Alpha virt. eigenvalues --    0.77194   0.77519   0.77519   0.78533   0.78534
 Alpha virt. eigenvalues --    0.78709   0.78709   0.78952   0.78960   0.79018
 Alpha virt. eigenvalues --    0.79018   0.79438   0.79439   0.79731   0.79731
 Alpha virt. eigenvalues --    0.79744   0.79752   0.81181   0.81181   0.81436
 Alpha virt. eigenvalues --    0.81436   0.82452   0.82452   0.82583   0.82585
 Alpha virt. eigenvalues --    0.82757   0.82760   0.83134   0.84410   0.84410
 Alpha virt. eigenvalues --    0.84902   0.84902   0.85118   0.85122   0.85464
 Alpha virt. eigenvalues --    0.85464   0.85510   0.85511   0.85676   0.85676
 Alpha virt. eigenvalues --    0.85744   0.87293   0.87293   0.87468   0.87468
 Alpha virt. eigenvalues --    0.87538   0.88117   0.88505   0.88672   0.88676
 Alpha virt. eigenvalues --    0.88855   0.88855   0.89758   0.89764   0.90003
 Alpha virt. eigenvalues --    0.90003   0.90456   0.91059   0.91059   0.92844
 Alpha virt. eigenvalues --    0.92844   0.93865   0.95103   0.95103   0.95658
 Alpha virt. eigenvalues --    0.95662   0.98285   0.98285   0.98593   0.98787
 Alpha virt. eigenvalues --    1.00856   1.00932   1.00932   1.01062   1.01062
 Alpha virt. eigenvalues --    1.01347   1.01350   1.01789   1.02487   1.02487
 Alpha virt. eigenvalues --    1.03171   1.03171   1.04331   1.05098   1.05098
 Alpha virt. eigenvalues --    1.05100   1.05103   1.05115   1.05115   1.05254
 Alpha virt. eigenvalues --    1.05254   1.06191   1.06191   1.07320   1.07326
 Alpha virt. eigenvalues --    1.07555   1.08027   1.08027   1.08486   1.08496
 Alpha virt. eigenvalues --    1.09259   1.09259   1.09415   1.09415   1.09957
 Alpha virt. eigenvalues --    1.10275   1.10276   1.10610   1.10610   1.10947
 Alpha virt. eigenvalues --    1.10959   1.12098   1.12099   1.12955   1.12955
 Alpha virt. eigenvalues --    1.13505   1.13511   1.13781   1.13781   1.14850
 Alpha virt. eigenvalues --    1.14850   1.14915   1.16056   1.16056   1.16425
 Alpha virt. eigenvalues --    1.16425   1.18352   1.18359   1.18681   1.19050
 Alpha virt. eigenvalues --    1.19050   1.19811   1.19811   1.20034   1.20034
 Alpha virt. eigenvalues --    1.21017   1.21019   1.21561   1.21561   1.21666
 Alpha virt. eigenvalues --    1.21666   1.21989   1.24318   1.24318   1.25123
 Alpha virt. eigenvalues --    1.25127   1.25552   1.25825   1.25826   1.26817
 Alpha virt. eigenvalues --    1.26817   1.27089   1.27090   1.28241   1.28424
 Alpha virt. eigenvalues --    1.28637   1.28637   1.28731   1.28734   1.31441
 Alpha virt. eigenvalues --    1.31441   1.31636   1.31639   1.32320   1.32324
 Alpha virt. eigenvalues --    1.32778   1.32778   1.34603   1.34609   1.34946
 Alpha virt. eigenvalues --    1.34946   1.35155   1.35704   1.35704   1.37243
 Alpha virt. eigenvalues --    1.40420   1.42433   1.43277   1.43277   1.43298
 Alpha virt. eigenvalues --    1.43298   1.43451   1.43451   1.43649   1.43655
 Alpha virt. eigenvalues --    1.43715   1.43716   1.44305   1.44308   1.45518
 Alpha virt. eigenvalues --    1.45518   1.45537   1.45537   1.45877   1.46362
 Alpha virt. eigenvalues --    1.46362   1.47561   1.47923   1.47925   1.49120
 Alpha virt. eigenvalues --    1.49123   1.49424   1.49424   1.51192   1.51192
 Alpha virt. eigenvalues --    1.51695   1.51696   1.52064   1.52073   1.52105
 Alpha virt. eigenvalues --    1.52402   1.52402   1.52443   1.52443   1.53991
 Alpha virt. eigenvalues --    1.53992   1.54642   1.54644   1.55181   1.55181
 Alpha virt. eigenvalues --    1.56008   1.56008   1.56414   1.56415   1.56978
 Alpha virt. eigenvalues --    1.57187   1.57188   1.58036   1.58036   1.60020
 Alpha virt. eigenvalues --    1.60020   1.60122   1.60122   1.64395   1.64399
 Alpha virt. eigenvalues --    1.64728   1.64728   1.65202   1.65780   1.65782
 Alpha virt. eigenvalues --    1.66041   1.66512   1.66512   1.66573   1.66573
 Alpha virt. eigenvalues --    1.67218   1.67218   1.69510   1.69781   1.69781
 Alpha virt. eigenvalues --    1.69809   1.69813   1.70849   1.70849   1.71946
 Alpha virt. eigenvalues --    1.72368   1.72368   1.72859   1.72860   1.74251
 Alpha virt. eigenvalues --    1.74258   1.74537   1.74537   1.75271   1.75273
 Alpha virt. eigenvalues --    1.75517   1.75517   1.76459   1.77004   1.77004
 Alpha virt. eigenvalues --    1.77845   1.79294   1.79294   1.79544   1.79544
 Alpha virt. eigenvalues --    1.79649   1.79649   1.79980   1.80709   1.80712
 Alpha virt. eigenvalues --    1.81538   1.81540   1.82484   1.82484   1.84810
 Alpha virt. eigenvalues --    1.84810   1.85473   1.85549   1.85549   1.86036
 Alpha virt. eigenvalues --    1.86542   1.86542   1.86681   1.86681   1.87379
 Alpha virt. eigenvalues --    1.87829   1.87830   1.89209   1.89610   1.89610
 Alpha virt. eigenvalues --    1.89827   1.89827   1.89890   1.89895   1.90398
 Alpha virt. eigenvalues --    1.90398   1.91182   1.91183   1.91929   1.91977
 Alpha virt. eigenvalues --    1.91977   1.92290   1.92637   1.92637   1.92788
 Alpha virt. eigenvalues --    1.92790   1.92815   1.92815   1.93249   1.93249
 Alpha virt. eigenvalues --    1.94705   1.94705   1.96317   1.96317   1.96583
 Alpha virt. eigenvalues --    1.96585   1.97094   1.97095   1.97383   1.97383
 Alpha virt. eigenvalues --    1.98433   1.98434   2.02987   2.02987   2.03051
 Alpha virt. eigenvalues --    2.03090   2.03093   2.04285   2.04291   2.04888
 Alpha virt. eigenvalues --    2.04888   2.04926   2.04926   2.05852   2.05852
 Alpha virt. eigenvalues --    2.06213   2.07218   2.07218   2.08809   2.08810
 Alpha virt. eigenvalues --    2.09194   2.11439   2.11439   2.12906   2.13776
 Alpha virt. eigenvalues --    2.13778   2.14595   2.14595   2.16745   2.19210
 Alpha virt. eigenvalues --    2.19218   2.20334   2.20993   2.20994   2.21134
 Alpha virt. eigenvalues --    2.21134   2.21923   2.21923   2.22252   2.22252
 Alpha virt. eigenvalues --    2.22373   2.23725   2.23725   2.24720   2.24727
 Alpha virt. eigenvalues --    2.24896   2.24896   2.25919   2.25925   2.25958
 Alpha virt. eigenvalues --    2.25959   2.26152   2.26152   2.27319   2.29812
 Alpha virt. eigenvalues --    2.29812   2.31712   2.31713   2.32773   2.32773
 Alpha virt. eigenvalues --    2.33171   2.33174   2.33616   2.33766   2.33897
 Alpha virt. eigenvalues --    2.33907   2.34082   2.34083   2.34095   2.34095
 Alpha virt. eigenvalues --    2.34349   2.34349   2.34611   2.34614   2.35523
 Alpha virt. eigenvalues --    2.35523   2.37729   2.37729   2.39240   2.39241
 Alpha virt. eigenvalues --    2.41291   2.41293   2.42440   2.42440   2.43342
 Alpha virt. eigenvalues --    2.43953   2.44076   2.44078   2.45287   2.45287
 Alpha virt. eigenvalues --    2.45731   2.45731   2.46088   2.46096   2.48363
 Alpha virt. eigenvalues --    2.48363   2.48595   2.48599   2.48755   2.48755
 Alpha virt. eigenvalues --    2.51574   2.54503   2.54507   2.55672   2.55673
 Alpha virt. eigenvalues --    2.56043   2.56043   2.57530   2.57530   2.57679
 Alpha virt. eigenvalues --    2.57875   2.57875   2.58399   2.58399   2.59279
 Alpha virt. eigenvalues --    2.60480   2.61164   2.61164   2.61925   2.61925
 Alpha virt. eigenvalues --    2.62366   2.64119   2.64121   2.64404   2.64404
 Alpha virt. eigenvalues --    2.64655   2.64655   2.65765   2.65766   2.68632
 Alpha virt. eigenvalues --    2.68632   2.69051   2.69051   2.69407   2.69412
 Alpha virt. eigenvalues --    2.70308   2.70308   2.73551   2.73555   2.73894
 Alpha virt. eigenvalues --    2.73895   2.74341   2.74341   2.74791   2.76241
 Alpha virt. eigenvalues --    2.76241   2.78252   2.78252   2.78811   2.78814
 Alpha virt. eigenvalues --    2.78858   2.78858   2.78935   2.78936   2.80201
 Alpha virt. eigenvalues --    2.80201   2.80236   2.80339   2.80339   2.83265
 Alpha virt. eigenvalues --    2.86112   2.86120   2.88688   2.88688   2.90198
 Alpha virt. eigenvalues --    2.90202   2.91300   2.91300   2.92025   2.92025
 Alpha virt. eigenvalues --    2.93445   2.95231   2.95231   2.96764   2.96764
 Alpha virt. eigenvalues --    2.97892   2.97892   2.98363   2.99175   2.99176
 Alpha virt. eigenvalues --    3.01194   3.01198   3.01512   3.01838   3.01838
 Alpha virt. eigenvalues --    3.02218   3.02218   3.04381   3.04381   3.07185
 Alpha virt. eigenvalues --    3.07185   3.09970   3.09972   3.10798   3.12084
 Alpha virt. eigenvalues --    3.12226   3.12501   3.12502   3.12548   3.12548
 Alpha virt. eigenvalues --    3.12990   3.12991   3.13036   3.13036   3.13053
 Alpha virt. eigenvalues --    3.13053   3.13610   3.13610   3.14142   3.14142
 Alpha virt. eigenvalues --    3.14433   3.14435   3.15990   3.16684   3.16684
 Alpha virt. eigenvalues --    3.18199   3.18207   3.18453   3.18454   3.18903
 Alpha virt. eigenvalues --    3.19050   3.19050   3.22608   3.22608   3.23611
 Alpha virt. eigenvalues --    3.23616   3.24073   3.24073   3.24501   3.24501
 Alpha virt. eigenvalues --    3.28083   3.28083   3.28407   3.28599   3.28599
 Alpha virt. eigenvalues --    3.29186   3.29187   3.29211   3.29211   3.29815
 Alpha virt. eigenvalues --    3.30007   3.30010   3.30134   3.30134   3.30531
 Alpha virt. eigenvalues --    3.30531   3.31295   3.31348   3.31350   3.32796
 Alpha virt. eigenvalues --    3.32796   3.34480   3.34485   3.35828   3.35831
 Alpha virt. eigenvalues --    3.38633   3.38633   3.38682   3.38682   3.40241
 Alpha virt. eigenvalues --    3.40242   3.40377   3.40602   3.40602   3.42234
 Alpha virt. eigenvalues --    3.42234   3.43248   3.43248   3.44207   3.46339
 Alpha virt. eigenvalues --    3.46340   3.46489   3.46489   3.50249   3.50523
 Alpha virt. eigenvalues --    3.50523   3.52791   3.52792   3.53257   3.53482
 Alpha virt. eigenvalues --    3.53482   3.54233   3.54233   3.56174   3.56175
 Alpha virt. eigenvalues --    3.56562   3.56565   3.57040   3.57040   3.57972
 Alpha virt. eigenvalues --    3.61343   3.61343   3.66334   3.69700   3.74049
 Alpha virt. eigenvalues --    3.74049   3.80221   3.80222   3.80520   3.80526
 Alpha virt. eigenvalues --    3.81600   3.81600   3.83452   3.83853   3.83853
 Alpha virt. eigenvalues --    3.85450   3.85450   3.87046   3.87047   4.06716
 Alpha virt. eigenvalues --    4.08490   4.08490   4.11103   4.11109   4.12906
 Alpha virt. eigenvalues --    4.12906   4.16508   4.16508   4.25627   4.25627
 Alpha virt. eigenvalues --    4.39534   4.39551   4.54918   4.54918   4.63031
 Alpha virt. eigenvalues --    4.67280   4.67280   4.68087   4.68100   4.68895
 Alpha virt. eigenvalues --    4.68897   4.70096   4.70096   4.71186   4.72799
 Alpha virt. eigenvalues --    4.72799   4.77791   4.77798   4.82256   4.82256
 Alpha virt. eigenvalues --    4.84222  23.10015  23.17137  23.17137  23.31868
 Alpha virt. eigenvalues --   23.31872  23.46573  23.46573  23.57594  23.57595
 Alpha virt. eigenvalues --   23.58781  23.59860  23.59860  23.62022  23.62024
 Alpha virt. eigenvalues --   23.62492  23.62492  23.83234  23.83235  23.83240
 Alpha virt. eigenvalues --   23.83240  23.83702  23.83706  23.83837  23.83869
 Alpha virt. eigenvalues --   23.83869  23.85378  23.85378  23.89292  23.89296
 Alpha virt. eigenvalues --   23.92563  23.92563  23.93906  23.96958  23.97377
 Alpha virt. eigenvalues --   23.97377  23.97857  23.97858  23.98226  23.98226
 Alpha virt. eigenvalues --   23.98666  23.98666  23.99278  23.99278  24.00096
 Alpha virt. eigenvalues --   24.00098  24.01044  24.01044  24.01568  24.11458
 Alpha virt. eigenvalues --   24.11463  24.11570  24.11570  24.11715  24.11715
 Alpha virt. eigenvalues --   24.12122  24.12123  24.12263  24.12264  24.12947
 Alpha virt. eigenvalues --   24.12947  24.13097  24.13097  24.13317  24.13752
          Condensed to atoms (all electrons):
 Mulliken charges:
               1
     1  C    0.018107
     2  C    0.018103
     3  C   -0.213597
     4  C   -0.213599
     5  C   -0.213595
     6  C   -0.213604
     7  C    0.018122
     8  C    0.018092
     9  C    0.018116
    10  C    0.018091
    11  C   -0.213563
    12  C   -0.213572
    13  C   -0.213569
    14  C   -0.213563
    15  C    0.018119
    16  C    0.018111
    17  C    0.018107
    18  C    0.018103
    19  C   -0.213597
    20  C   -0.213599
    21  C   -0.213595
    22  C   -0.213604
    23  C    0.018122
    24  C    0.018091
    25  C    0.018115
    26  C    0.018091
    27  C   -0.213563
    28  C   -0.213572
    29  C   -0.213570
    30  C   -0.213563
    31  C    0.018118
    32  C    0.018113
    33  C    0.018107
    34  C    0.018104
    35  C   -0.213597
    36  C   -0.213599
    37  C   -0.213595
    38  C   -0.213604
    39  C    0.018123
    40  C    0.018091
    41  C    0.018115
    42  C    0.018090
    43  C   -0.213563
    44  C   -0.213572
    45  C   -0.213570
    46  C   -0.213562
    47  C    0.018117
    48  C    0.018113
    49  C    0.018106
    50  C    0.018104
    51  C   -0.213597
    52  C   -0.213599
    53  C   -0.213595
    54  C   -0.213604
    55  C    0.018121
    56  C    0.018093
    57  C    0.018115
    58  C    0.018091
    59  C   -0.213564
    60  C   -0.213571
    61  C   -0.213569
    62  C   -0.213563
    63  C    0.018118
    64  C    0.018113
    65  H    0.195480
    66  H    0.195481
    67  H    0.195488
    68  H    0.195480
    69  H    0.195472
    70  H    0.195466
    71  H    0.195467
    72  H    0.195469
    73  H    0.195480
    74  H    0.195480
    75  H    0.195489
    76  H    0.195479
    77  H    0.195472
    78  H    0.195466
    79  H    0.195467
    80  H    0.195469
    81  H    0.195480
    82  H    0.195481
    83  H    0.195488
    84  H    0.195479
    85  H    0.195472
    86  H    0.195466
    87  H    0.195467
    88  H    0.195469
    89  H    0.195480
    90  H    0.195481
    91  H    0.195488
    92  H    0.195479
    93  H    0.195472
    94  H    0.195466
    95  H    0.195467
    96  H    0.195469
 Sum of Mulliken charges =  -0.00000
 Mulliken charges with hydrogens summed into heavy atoms:
               1
     1  C    0.018107
     2  C    0.018103
     3  C   -0.018117
     4  C   -0.018118
     5  C   -0.018106
     6  C   -0.018125
     7  C    0.018122
     8  C    0.018092
     9  C    0.018116
    10  C    0.018091
    11  C   -0.018091
    12  C   -0.018106
    13  C   -0.018102
    14  C   -0.018094
    15  C    0.018119
    16  C    0.018111
    17  C    0.018107
    18  C    0.018103
    19  C   -0.018117
    20  C   -0.018119
    21  C   -0.018107
    22  C   -0.018125
    23  C    0.018122
    24  C    0.018091
    25  C    0.018115
    26  C    0.018091
    27  C   -0.018091
    28  C   -0.018106
    29  C   -0.018103
    30  C   -0.018094
    31  C    0.018118
    32  C    0.018113
    33  C    0.018107
    34  C    0.018104
    35  C   -0.018117
    36  C   -0.018119
    37  C   -0.018106
    38  C   -0.018125
    39  C    0.018123
    40  C    0.018091
    41  C    0.018115
    42  C    0.018090
    43  C   -0.018091
    44  C   -0.018106
    45  C   -0.018103
    46  C   -0.018093
    47  C    0.018117
    48  C    0.018113
    49  C    0.018106
    50  C    0.018104
    51  C   -0.018117
    52  C   -0.018118
    53  C   -0.018106
    54  C   -0.018125
    55  C    0.018121
    56  C    0.018093
    57  C    0.018115
    58  C    0.018091
    59  C   -0.018092
    60  C   -0.018105
    61  C   -0.018103
    62  C   -0.018094
    63  C    0.018118
    64  C    0.018113
 Electronic spatial extent (au):  <R**2>=          55030.4285
 Charge=             -0.0000 electrons
 Dipole moment (field-independent basis, Debye):
    X=             -0.0000    Y=             -0.0000    Z=             -0.0004  Tot=              0.0004
 Quadrupole moment (field-independent basis, Debye-Ang):
   XX=           -381.3741   YY=           -381.3741   ZZ=           -310.0473
   XY=             -0.0000   XZ=              0.0000   YZ=              0.0000
 Traceless Quadrupole moment (field-independent basis, Debye-Ang):
   XX=            -23.7756   YY=            -23.7756   ZZ=             47.5512
   XY=             -0.0000   XZ=              0.0000   YZ=              0.0000
 Octapole moment (field-independent basis, Debye-Ang**2):
  XXX=             -0.0009  YYY=             -0.0002  ZZZ=          -1715.7745  XYY=             -0.0003
  XXY=             -0.0000  XXZ=           -703.4874  XZZ=             -0.0003  YZZ=             -0.0001
  YYZ=           -703.4874  XYZ=             -0.0000
 Hexadecapole moment (field-independent basis, Debye-Ang**3):
 XXXX=         -36012.8197 YYYY=         -36012.8224 ZZZZ=         -10913.6171 XXXY=              0.0918
 XXXZ=             -0.0015 YYYX=             -0.0923 YYYZ=             -0.0008 ZZZX=             -0.0013
 ZZZY=             -0.0004 XXYY=         -12004.2196 XXZZ=          -6949.5815 YYZZ=          -6949.5819
 XXYZ=              0.0004 YYXZ=             -0.0004 ZZXY=             -0.0001
 N-N= 8.078437410060D+03 E-N=-2.186152650194D+04  KE= 2.447945362110D+03
 There are a total of     2220544 grid points.
 ElSum from          density=      416.0001467969
 ElSum from atomic densities=      415.9998012787
 Hirshfeld populations at iteration   1 (CA, CB, DipXYZ):
               1          2          3          4          5
     1  C    3.000779   3.000779   0.011053  -0.016184  -0.010374
     2  C    3.000778   3.000778   0.001471   0.019525  -0.010372
     3  C    3.020948   3.020948  -0.015381   0.058515   0.023802
     4  C    3.020950   3.020950   0.015927  -0.058368   0.023796
     5  C    3.020948   3.020948  -0.036630   0.048165  -0.023801
     6  C    3.020948   3.020948   0.037070  -0.047828  -0.023800
     7  C    3.000779   3.000779   0.016393  -0.010716   0.010367
     8  C    3.000782   3.000782  -0.006104   0.018624   0.010370
     9  C    3.000779   3.000779   0.019221  -0.003657  -0.010353
    10  C    3.000779   3.000779  -0.012784   0.014828  -0.010357
    11  C    3.020947   3.020947  -0.052265   0.030467   0.023794
    12  C    3.020946   3.020946   0.052528  -0.030007   0.023801
    13  C    3.020944   3.020944  -0.059956   0.008139  -0.023805
    14  C    3.020946   3.020946   0.060011  -0.007671  -0.023805
    15  C    3.000779   3.000779   0.019169   0.003980   0.010359
    16  C    3.000777   3.000777  -0.017478   0.008788   0.010355
    17  C    3.000779   3.000779   0.016184   0.011053  -0.010374
    18  C    3.000778   3.000778  -0.019525   0.001471  -0.010372
    19  C    3.020948   3.020948  -0.058515  -0.015381   0.023802
    20  C    3.020950   3.020950   0.058368   0.015927   0.023796
    21  C    3.020948   3.020948  -0.048165  -0.036630  -0.023801
    22  C    3.020948   3.020948   0.047828   0.037070  -0.023800
    23  C    3.000779   3.000779   0.010716   0.016393   0.010367
    24  C    3.000782   3.000782  -0.018624  -0.006104   0.010370
    25  C    3.000779   3.000779   0.003657   0.019221  -0.010353
    26  C    3.000779   3.000779  -0.014828  -0.012784  -0.010357
    27  C    3.020947   3.020947  -0.030467  -0.052265   0.023794
    28  C    3.020946   3.020946   0.030007   0.052528   0.023801
    29  C    3.020944   3.020944  -0.008139  -0.059956  -0.023805
    30  C    3.020946   3.020946   0.007671   0.060011  -0.023806
    31  C    3.000779   3.000779  -0.003980   0.019169   0.010359
    32  C    3.000777   3.000777  -0.008788  -0.017478   0.010355
    33  C    3.000779   3.000779  -0.011053   0.016184  -0.010374
    34  C    3.000778   3.000778  -0.001471  -0.019525  -0.010372
    35  C    3.020948   3.020948   0.015381  -0.058515   0.023802
    36  C    3.020950   3.020950  -0.015927   0.058368   0.023796
    37  C    3.020948   3.020948   0.036630  -0.048165  -0.023801
    38  C    3.020948   3.020948  -0.037070   0.047828  -0.023800
    39  C    3.000779   3.000779  -0.016393   0.010716   0.010367
    40  C    3.000782   3.000782   0.006104  -0.018624   0.010370
    41  C    3.000779   3.000779  -0.019221   0.003657  -0.010353
    42  C    3.000779   3.000779   0.012784  -0.014828  -0.010357
    43  C    3.020947   3.020947   0.052265  -0.030467   0.023794
    44  C    3.020946   3.020946  -0.052528   0.030007   0.023801
    45  C    3.020944   3.020944   0.059956  -0.008139  -0.023804
    46  C    3.020946   3.020946  -0.060012   0.007671  -0.023806
    47  C    3.000779   3.000779  -0.019169  -0.003980   0.010359
    48  C    3.000777   3.000777   0.017479  -0.008788   0.010355
    49  C    3.000779   3.000779  -0.016184  -0.011053  -0.010374
    50  C    3.000778   3.000778   0.019525  -0.001471  -0.010372
    51  C    3.020948   3.020948   0.058515   0.015381   0.023802
    52  C    3.020950   3.020950  -0.058368  -0.015927   0.023796
    53  C    3.020948   3.020948   0.048164   0.036630  -0.023801
    54  C    3.020948   3.020948  -0.047828  -0.037070  -0.023800
    55  C    3.000779   3.000779  -0.010716  -0.016393   0.010367
    56  C    3.000782   3.000782   0.018624   0.006104   0.010370
    57  C    3.000779   3.000779  -0.003657  -0.019221  -0.010353
    58  C    3.000779   3.000779   0.014828   0.012784  -0.010357
    59  C    3.020947   3.020947   0.030467   0.052265   0.023794
    60  C    3.020946   3.020946  -0.030006  -0.052528   0.023801
    61  C    3.020944   3.020944   0.008139   0.059956  -0.023804
    62  C    3.020946   3.020946  -0.007671  -0.060012  -0.023806
    63  C    3.000779   3.000779   0.003980  -0.019169   0.010359
    64  C    3.000777   3.000777   0.008788   0.017478   0.010355
    65  H    0.478275   0.478275  -0.005076   0.060108   0.132654
    66  H    0.478276   0.478276   0.025646  -0.054603   0.132650
    67  H    0.478275   0.478275  -0.027702   0.053583  -0.132653
    68  H    0.478276   0.478276   0.044595  -0.040621  -0.132651
    69  H    0.478277   0.478277  -0.046106   0.038878   0.132651
    70  H    0.478277   0.478277   0.056728  -0.020477   0.132652
    71  H    0.478276   0.478276  -0.057469   0.018270  -0.132653
    72  H    0.478277   0.478277   0.060240   0.002760  -0.132652
    73  H    0.478275   0.478275  -0.060109  -0.005076   0.132654
    74  H    0.478276   0.478276   0.054603   0.025646   0.132650
    75  H    0.478275   0.478275  -0.053583  -0.027702  -0.132653
    76  H    0.478276   0.478276   0.040621   0.044595  -0.132651
    77  H    0.478277   0.478277  -0.038878  -0.046106   0.132651
    78  H    0.478277   0.478277   0.020477   0.056728   0.132652
    79  H    0.478277   0.478277  -0.018270  -0.057469  -0.132653
    80  H    0.478277   0.478277  -0.002760   0.060240  -0.132652
    81  H    0.478276   0.478276   0.005076  -0.060109   0.132654
    82  H    0.478276   0.478276  -0.025646   0.054603   0.132650
    83  H    0.478275   0.478275   0.027702  -0.053583  -0.132653
    84  H    0.478276   0.478276  -0.044595   0.040621  -0.132651
    85  H    0.478277   0.478277   0.046106  -0.038878   0.132651
    86  H    0.478277   0.478277  -0.056728   0.020477   0.132652
    87  H    0.478277   0.478277   0.057469  -0.018270  -0.132654
    88  H    0.478277   0.478277  -0.060240  -0.002760  -0.132652
    89  H    0.478276   0.478276   0.060109   0.005076   0.132654
    90  H    0.478276   0.478276  -0.054603  -0.025646   0.132650
    91  H    0.478275   0.478275   0.053583   0.027702  -0.132653
    92  H    0.478275   0.478275  -0.040621  -0.044595  -0.132651
    93  H    0.478277   0.478277   0.038878   0.046106   0.132651
    94  H    0.478277   0.478277  -0.020477  -0.056728   0.132652
    95  H    0.478277   0.478277   0.018270   0.057469  -0.132653
    96  H    0.478277   0.478277   0.002760  -0.060240  -0.132652
       Tot 208.000073 208.000073  -0.000000  -0.000000  -0.000107

 Dip from Atomic Chgs              0.000000  -0.000001  -0.000749
         Total Dipole             -0.000000  -0.000001  -0.000856

 Hirshfeld charges, spin densities, dipoles, and CM5 charges using IRadAn=      5:
              Q-H        S-H        Dx         Dy         Dz        Q-CM5   
     1  C   -0.001558   0.000000   0.011053  -0.016184  -0.010374  -0.005866
     2  C   -0.001556   0.000000   0.001471   0.019525  -0.010372  -0.005864
     3  C   -0.041897   0.000000  -0.015381   0.058515   0.023802  -0.095099
     4  C   -0.041900   0.000000   0.015927  -0.058368   0.023796  -0.095102
     5  C   -0.041897   0.000000  -0.036630   0.048165  -0.023801  -0.095100
     6  C   -0.041896   0.000000   0.037070  -0.047828  -0.023800  -0.095098
     7  C   -0.001558   0.000000   0.016393  -0.010716   0.010367  -0.005866
     8  C   -0.001564   0.000000  -0.006104   0.018624   0.010370  -0.005872
     9  C   -0.001557   0.000000   0.019221  -0.003657  -0.010353  -0.005865
    10  C   -0.001558   0.000000  -0.012784   0.014828  -0.010357  -0.005866
    11  C   -0.041894   0.000000  -0.052265   0.030467   0.023794  -0.095098
    12  C   -0.041892   0.000000   0.052528  -0.030007   0.023801  -0.095094
    13  C   -0.041888   0.000000  -0.059956   0.008139  -0.023805  -0.095091
    14  C   -0.041892   0.000000   0.060011  -0.007671  -0.023805  -0.095095
    15  C   -0.001558   0.000000   0.019169   0.003980   0.010359  -0.005866
    16  C   -0.001554   0.000000  -0.017478   0.008788   0.010355  -0.005862
    17  C   -0.001558   0.000000   0.016184   0.011053  -0.010374  -0.005866
    18  C   -0.001556   0.000000  -0.019525   0.001471  -0.010372  -0.005864
    19  C   -0.041897   0.000000  -0.058515  -0.015381   0.023802  -0.095099
    20  C   -0.041900   0.000000   0.058368   0.015927   0.023796  -0.095102
    21  C   -0.041897   0.000000  -0.048165  -0.036630  -0.023801  -0.095100
    22  C   -0.041895   0.000000   0.047828   0.037070  -0.023800  -0.095098
    23  C   -0.001558   0.000000   0.010716   0.016393   0.010367  -0.005866
    24  C   -0.001564   0.000000  -0.018624  -0.006104   0.010370  -0.005872
    25  C   -0.001557   0.000000   0.003657   0.019221  -0.010353  -0.005865
    26  C   -0.001558   0.000000  -0.014828  -0.012784  -0.010357  -0.005866
    27  C   -0.041894   0.000000  -0.030467  -0.052265   0.023794  -0.095098
    28  C   -0.041892   0.000000   0.030007   0.052528   0.023801  -0.095094
    29  C   -0.041888   0.000000  -0.008139  -0.059956  -0.023805  -0.095091
    30  C   -0.041892   0.000000   0.007671   0.060011  -0.023806  -0.095095
    31  C   -0.001558   0.000000  -0.003980   0.019169   0.010359  -0.005866
    32  C   -0.001554   0.000000  -0.008788  -0.017478   0.010355  -0.005862
    33  C   -0.001557   0.000000  -0.011053   0.016184  -0.010374  -0.005866
    34  C   -0.001556   0.000000  -0.001471  -0.019525  -0.010372  -0.005864
    35  C   -0.041897   0.000000   0.015381  -0.058515   0.023802  -0.095099
    36  C   -0.041900   0.000000  -0.015927   0.058368   0.023796  -0.095102
    37  C   -0.041897   0.000000   0.036630  -0.048165  -0.023801  -0.095100
    38  C   -0.041896   0.000000  -0.037070   0.047828  -0.023800  -0.095098
    39  C   -0.001558   0.000000  -0.016393   0.010716   0.010367  -0.005866
    40  C   -0.001564   0.000000   0.006104  -0.018624   0.010370  -0.005872
    41  C   -0.001557   0.000000  -0.019221   0.003657  -0.010353  -0.005865
    42  C   -0.001558   0.000000   0.012784  -0.014828  -0.010357  -0.005866
    43  C   -0.041894   0.000000   0.052265  -0.030467   0.023794  -0.095098
    44  C   -0.041892   0.000000  -0.052528   0.030007   0.023801  -0.095094
    45  C   -0.041888   0.000000   0.059956  -0.008139  -0.023804  -0.095091
    46  C   -0.041892   0.000000  -0.060012   0.007671  -0.023806  -0.095095
    47  C   -0.001558   0.000000  -0.019169  -0.003980   0.010359  -0.005866
    48  C   -0.001554   0.000000   0.017479  -0.008788   0.010355  -0.005862
    49  C   -0.001557   0.000000  -0.016184  -0.011053  -0.010374  -0.005866
    50  C   -0.001556   0.000000   0.019525  -0.001471  -0.010372  -0.005864
    51  C   -0.041897   0.000000   0.058515   0.015381   0.023802  -0.095099
    52  C   -0.041900   0.000000  -0.058368  -0.015927   0.023796  -0.095102
    53  C   -0.041897   0.000000   0.048164   0.036630  -0.023801  -0.095100
    54  C   -0.041896   0.000000  -0.047828  -0.037070  -0.023800  -0.095098
    55  C   -0.001558   0.000000  -0.010716  -0.016393   0.010367  -0.005866
    56  C   -0.001564   0.000000   0.018624   0.006104   0.010370  -0.005872
    57  C   -0.001557   0.000000  -0.003657  -0.019221  -0.010353  -0.005865
    58  C   -0.001558   0.000000   0.014828   0.012784  -0.010357  -0.005866
    59  C   -0.041894   0.000000   0.030467   0.052265   0.023794  -0.095098
    60  C   -0.041892   0.000000  -0.030006  -0.052528   0.023801  -0.095094
    61  C   -0.041888   0.000000   0.008139   0.059956  -0.023804  -0.095091
    62  C   -0.041892   0.000000  -0.007671  -0.060012  -0.023806  -0.095095
    63  C   -0.001558   0.000000   0.003980  -0.019169   0.010359  -0.005866
    64  C   -0.001554   0.000000   0.008788   0.017478   0.010355  -0.005862
    65  H    0.043449   0.000000  -0.005076   0.060108   0.132654   0.100959
    66  H    0.043448   0.000000   0.025646  -0.054603   0.132650   0.100958
    67  H    0.043449   0.000000  -0.027702   0.053583  -0.132653   0.100960
    68  H    0.043449   0.000000   0.044595  -0.040621  -0.132651   0.100959
    69  H    0.043446   0.000000  -0.046106   0.038878   0.132651   0.100958
    70  H    0.043446   0.000000   0.056728  -0.020477   0.132652   0.100957
    71  H    0.043447   0.000000  -0.057469   0.018270  -0.132653   0.100959
    72  H    0.043446   0.000000   0.060240   0.002760  -0.132652   0.100958
    73  H    0.043449   0.000000  -0.060109  -0.005076   0.132654   0.100959
    74  H    0.043448   0.000000   0.054603   0.025646   0.132650   0.100958
    75  H    0.043449   0.000000  -0.053583  -0.027702  -0.132653   0.100960
    76  H    0.043449   0.000000   0.040621   0.044595  -0.132651   0.100959
    77  H    0.043446   0.000000  -0.038878  -0.046106   0.132651   0.100958
    78  H    0.043446   0.000000   0.020477   0.056728   0.132652   0.100957
    79  H    0.043447   0.000000  -0.018270  -0.057469  -0.132653   0.100959
    80  H    0.043446   0.000000  -0.002760   0.060240  -0.132652   0.100959
    81  H    0.043449   0.000000   0.005076  -0.060109   0.132654   0.100959
    82  H    0.043448   0.000000  -0.025646   0.054603   0.132650   0.100958
    83  H    0.043449   0.000000   0.027702  -0.053583  -0.132653   0.100960
    84  H    0.043449   0.000000  -0.044595   0.040621  -0.132651   0.100959
    85  H    0.043446   0.000000   0.046106  -0.038878   0.132651   0.100958
    86  H    0.043446   0.000000  -0.056728   0.020477   0.132652   0.100957
    87  H    0.043447   0.000000   0.057469  -0.018270  -0.132654   0.100959
    88  H    0.043446   0.000000  -0.060240  -0.002760  -0.132652   0.100959
    89  H    0.043449   0.000000   0.060109   0.005076   0.132654   0.100959
    90  H    0.043448   0.000000  -0.054603  -0.025646   0.132650   0.100958
    91  H    0.043449   0.000000   0.053583   0.027702  -0.132653   0.100960
    92  H    0.043449   0.000000  -0.040621  -0.044595  -0.132651   0.100959
    93  H    0.043446   0.000000   0.038878   0.046106   0.132651   0.100958
    94  H    0.043446   0.000000  -0.020477  -0.056728   0.132652   0.100957
    95  H    0.043447   0.000000   0.018270   0.057469  -0.132653   0.100959
    96  H    0.043446   0.000000   0.002760  -0.060240  -0.132652   0.100959
       Tot  -0.000147   0.000000  -0.000000  -0.000000  -0.000107  -0.000147
 Hirshfeld charges with hydrogens summed into heavy atoms:
              Q-H       Q-CM5   
     1  C   -0.001558  -0.005866
     2  C   -0.001556  -0.005864
     3  C    0.001552   0.005860
     4  C    0.001548   0.005856
     5  C    0.001553   0.005860
     6  C    0.001553   0.005861
     7  C   -0.001558  -0.005866
     8  C   -0.001564  -0.005872
     9  C   -0.001557  -0.005865
    10  C   -0.001558  -0.005866
    11  C    0.001551   0.005860
    12  C    0.001554   0.005863
    13  C    0.001559   0.005868
    14  C    0.001555   0.005863
    15  C   -0.001558  -0.005866
    16  C   -0.001554  -0.005862
    17  C   -0.001558  -0.005866
    18  C   -0.001556  -0.005864
    19  C    0.001552   0.005860
    20  C    0.001548   0.005856
    21  C    0.001553   0.005860
    22  C    0.001553   0.005861
    23  C   -0.001558  -0.005866
    24  C   -0.001564  -0.005872
    25  C   -0.001557  -0.005865
    26  C   -0.001558  -0.005866
    27  C    0.001551   0.005860
    28  C    0.001554   0.005863
    29  C    0.001559   0.005868
    30  C    0.001555   0.005863
    31  C   -0.001558  -0.005866
    32  C   -0.001554  -0.005862
    33  C   -0.001557  -0.005866
    34  C   -0.001556  -0.005864
    35  C    0.001552   0.005860
    36  C    0.001548   0.005856
    37  C    0.001553   0.005860
    38  C    0.001553   0.005861
    39  C   -0.001558  -0.005866
    40  C   -0.001564  -0.005872
    41  C   -0.001557  -0.005865
    42  C   -0.001558  -0.005866
    43  C    0.001551   0.005860
    44  C    0.001554   0.005863
    45  C    0.001559   0.005868
    46  C    0.001555   0.005863
    47  C   -0.001558  -0.005866
    48  C   -0.001554  -0.005862
    49  C   -0.001557  -0.005866
    50  C   -0.001556  -0.005864
    51  C    0.001552   0.005860
    52  C    0.001548   0.005856
    53  C    0.001553   0.005860
    54  C    0.001553   0.005861
    55  C   -0.001558  -0.005866
    56  C   -0.001564  -0.005872
    57  C   -0.001557  -0.005865
    58  C   -0.001558  -0.005866
    59  C    0.001551   0.005860
    60  C    0.001554   0.005863
    61  C    0.001559   0.005868
    62  C    0.001555   0.005863
    63  C   -0.001558  -0.005866
    64  C   -0.001554  -0.005862
 
 EQQ=  0.00000000000     EQD=  0.00000000000     EDD= 0.321535675454E-01
 EQQ+QD+DD= 0.321535675454E-01
 
 1\1\GINC-CU17\SP\RB3LYP\6-311G(d)\C64H32\WANG\08-Jul-2025\0\\# B3LYP/6
 -311G* Pop=Hirshfeld NOSYMM\\From ../../cnt_8_8-2_opt.out\\0,1\C,0,5.0
 92744,2.114513,1.231837\C,0,5.467404,0.715217,1.231798\C,0,5.154153,2.
 088641,3.666344\C,0,5.507763,0.768273,3.666315\C,0,3.962375,3.901849,0
 .022964\C,0,4.79467,2.817567,0.022953\C,0,3.895782,3.90221,2.457485\C,
 0,4.777825,2.753123,2.457471\C,0,2.105699,5.095624,1.231816\C,0,3.3603
 3,4.371556,1.231854\C,0,2.167309,5.120751,3.666339\C,0,3.351185,4.4374
 78,3.666374\C,0,0.042649,5.560363,0.022879\C,0,1.397817,5.38175,0.0228
 89\C,0,-0.004693,5.51385,2.457423\C,0,1.431446,5.324519,2.457434\C,0,-
 2.114512,5.092743,1.231837\C,0,-0.715216,5.467404,1.231798\C,0,-2.0886
 4,5.154153,3.666344\C,0,-0.768272,5.507763,3.666315\C,0,-3.901848,3.96
 2374,0.022964\C,0,-2.817566,4.794669,0.022953\C,0,-3.902209,3.895782,2
 .457485\C,0,-2.753122,4.777824,2.457471\C,0,-5.095623,2.105698,1.23181
 6\C,0,-4.371555,3.36033,1.231854\C,0,-5.120749,2.167308,3.666339\C,0,-
 4.437477,3.351184,3.666374\C,0,-5.560362,0.042648,0.022879\C,0,-5.3817
 49,1.397817,0.022889\C,0,-5.513849,-0.004694,2.457423\C,0,-5.324518,1.
 431446,2.457434\C,0,-5.092742,-2.114513,1.231837\C,0,-5.467403,-0.7152
 17,1.231798\C,0,-5.154152,-2.088641,3.666344\C,0,-5.507762,-0.768272,3
 .666315\C,0,-3.962373,-3.901848,0.022964\C,0,-4.794668,-2.817567,0.022
 953\C,0,-3.895781,-3.90221,2.457485\C,0,-4.777823,-2.753123,2.457471\C
 ,0,-2.105697,-5.095624,1.231816\C,0,-3.360329,-4.371555,1.231854\C,0,-
 2.167307,-5.12075,3.666339\C,0,-3.351183,-4.437478,3.666374\C,0,-0.042
 647,-5.560362,0.022879\C,0,-1.397816,-5.38175,0.022888\C,0,0.004695,-5
 .51385,2.457423\C,0,-1.431445,-5.324519,2.457434\C,0,2.114514,-5.09274
 3,1.231837\C,0,0.715218,-5.467404,1.231798\C,0,2.088642,-5.154153,3.66
 6344\C,0,0.768273,-5.507763,3.666315\C,0,3.901849,-3.962374,0.022964\C
 ,0,2.817568,-4.794669,0.022953\C,0,3.90221,-3.895781,2.457485\C,0,2.75
 3124,-4.777824,2.457471\C,0,5.095625,-2.105698,1.231816\C,0,4.371556,-
 3.360329,1.231853\C,0,5.120751,-2.167308,3.666339\C,0,4.437479,-3.3511
 84,3.666374\C,0,5.560363,-0.042648,0.022879\C,0,5.38175,-1.397816,0.02
 2888\C,0,5.51385,0.004694,2.457423\C,0,5.32452,-1.431445,2.457434\H,0,
 5.075523,2.606546,4.615921\H,0,5.698507,0.280341,4.615868\H,0,3.691427
 ,4.350196,-0.926599\H,0,5.157691,2.439891,-0.926615\H,0,1.745324,5.431
 133,4.615906\H,0,3.831005,4.227349,4.615962\H,0,-0.465944,5.685647,-0.
 92671\H,0,1.921529,5.370998,-0.926691\H,0,-2.606546,5.075523,4.615921\
 H,0,-0.28034,5.698507,4.615869\H,0,-4.350194,3.691426,-0.926599\H,0,-2
 .43989,5.15769,-0.926615\H,0,-5.431132,1.745324,4.615906\H,0,-4.227348
 ,3.831005,4.615962\H,0,-5.685646,-0.465945,-0.92671\H,0,-5.370997,1.92
 1528,-0.92669\H,0,-5.075522,-2.606546,4.615921\H,0,-5.698506,-0.280341
 ,4.615869\H,0,-3.691425,-4.350195,-0.926599\H,0,-5.157689,-2.439891,-0
 .926615\H,0,-1.745322,-5.431133,4.615906\H,0,-3.831004,-4.227348,4.615
 962\H,0,0.465945,-5.685646,-0.92671\H,0,-1.921527,-5.370997,-0.926691\
 H,0,2.606547,-5.075523,4.615921\H,0,0.280342,-5.698507,4.615868\H,0,4.
 350196,-3.691426,-0.926599\H,0,2.439892,-5.15769,-0.926615\H,0,5.43113
 4,-1.745323,4.615906\H,0,4.227349,-3.831005,4.615962\H,0,5.685647,0.46
 5945,-0.926711\H,0,5.370998,-1.921528,-0.926691\\Version=ES64L-G16RevB
 .01\HF=-2458.6341313\RMSD=5.382e-09\Dipole=-0.0000003,-0.0000007,-0.00
 01429\Quadrupole=-17.6765773,-17.6765693,35.3531466,-0.0000037,0.00000
 57,0.0000054\PG=C02 [X(C64H32)]\\@


 ACCORDING TO HEN3RY, LIFE IS MUCH LIKE A SEWER........
 YOU GET OUT OF IT JUST WHAT YOU PUT INTO IT...........
                         TOM LEHRER - (THE 3 IS SILENT)
 Job cpu time:       0 days  1 hours  6 minutes 19.2 seconds.
 Elapsed time:       0 days  0 hours  3 minutes 42.9 seconds.
 File lengths (MBytes):  RWF=    840 Int=      0 D2E=      0 Chk=     91 Scr=      1
 Normal termination of Gaussian 16 at Tue Jul  8 03:04:43 2025.
