 Entering Gaussian System, Link 0=g16
 Initial command:
 /opt/software/g16/l1.exe "/tmp/cnt_8_5-1_sgp-37267.tmp/Gau-104902.inp" -scrdir="/tmp/cnt_8_5-1_sgp-37267.tmp/"
 Entering Link 1 = /opt/software/g16/l1.exe PID=    104903.
  
 Copyright (c) 1988-2017, Gaussian, Inc.  All Rights Reserved.
  
 This is part of the Gaussian(R) 16 program.  It is based on
 the Gaussian(R) 09 system (copyright 2009, Gaussian, Inc.),
 the Gaussian(R) 03 system (copyright 2003, Gaussian, Inc.),
 the Gaussian(R) 98 system (copyright 1998, Gaussian, Inc.),
 the Gaussian(R) 94 system (copyright 1995, Gaussian, Inc.),
 the Gaussian 92(TM) system (copyright 1992, Gaussian, Inc.),
 the Gaussian 90(TM) system (copyright 1990, Gaussian, Inc.),
 the Gaussian 88(TM) system (copyright 1988, Gaussian, Inc.),
 the Gaussian 86(TM) system (copyright 1986, Carnegie Mellon
 University), and the Gaussian 82(TM) system (copyright 1983,
 Carnegie Mellon University). Gaussian is a federally registered
 trademark of Gaussian, Inc.
  
 This software contains proprietary and confidential information,
 including trade secrets, belonging to Gaussian, Inc.
  
 This software is provided under written license and may be
 used, copied, transmitted, or stored only in accord with that
 written license.
  
 The following legend is applicable only to US Government
 contracts under FAR:
  
                    RESTRICTED RIGHTS LEGEND
  
 Use, reproduction and disclosure by the US Government is
 subject to restrictions as set forth in subparagraphs (a)
 and (c) of the Commercial Computer Software - Restricted
 Rights clause in FAR 52.227-19.
  
 Gaussian, Inc.
 340 Quinnipiac St., Bldg. 40, Wallingford CT 06492
  
  
 ---------------------------------------------------------------
 Warning -- This program may not be used in any manner that
 competes with the business of Gaussian, Inc. or will provide
 assistance to any competitor of Gaussian, Inc.  The licensee
 of this program is prohibited from giving any competitor of
 Gaussian, Inc. access to this program.  By using this program,
 the user acknowledges that Gaussian, Inc. is engaged in the
 business of creating and licensing software in the field of
 computational chemistry and represents and warrants to the
 licensee that it is not a competitor of Gaussian, Inc. and that
 it will not use this program in any manner prohibited above.
 ---------------------------------------------------------------
  

 Cite this work as:
 Gaussian 16, Revision B.01,
 M. J. Frisch, G. W. Trucks, H. B. Schlegel, G. E. Scuseria, 
 M. A. Robb, J. R. Cheeseman, G. Scalmani, V. Barone, 
 G. A. Petersson, H. Nakatsuji, X. Li, M. Caricato, A. V. Marenich, 
 J. Bloino, B. G. Janesko, R. Gomperts, B. Mennucci, H. P. Hratchian, 
 J. V. Ortiz, A. F. Izmaylov, J. L. Sonnenberg, D. Williams-Young, 
 F. Ding, F. Lipparini, F. Egidi, J. Goings, B. Peng, A. Petrone, 
 T. Henderson, D. Ranasinghe, V. G. Zakrzewski, J. Gao, N. Rega, 
 G. Zheng, W. Liang, M. Hada, M. Ehara, K. Toyota, R. Fukuda, 
 J. Hasegawa, M. Ishida, T. Nakajima, Y. Honda, O. Kitao, H. Nakai, 
 T. Vreven, K. Throssell, J. A. Montgomery, Jr., J. E. Peralta, 
 F. Ogliaro, M. J. Bearpark, J. J. Heyd, E. N. Brothers, K. N. Kudin, 
 V. N. Staroverov, T. A. Keith, R. Kobayashi, J. Normand, 
 K. Raghavachari, A. P. Rendell, J. C. Burant, S. S. Iyengar, 
 J. Tomasi, M. Cossi, J. M. Millam, M. Klene, C. Adamo, R. Cammi, 
 J. W. Ochterski, R. L. Martin, K. Morokuma, O. Farkas, 
 J. B. Foresman, and D. J. Fox, Gaussian, Inc., Wallingford CT, 2016.
 
 ******************************************
 Gaussian 16:  ES64L-G16RevB.01 20-Dec-2017
                 9-Jul-2025 
 ******************************************
 %nproc=28
 Will use up to   28 processors via shared memory.
 ------------------------------------
 # B3LYP/6-311G* Pop=Hirshfeld NOSYMM
 ------------------------------------
 1/38=1,172=1/1;
 2/12=2,15=1,17=6,18=5,40=1/2;
 3/5=4,6=6,7=1,11=2,25=1,30=1,74=-5/1,2,3;
 4//1;
 5/5=2,38=5/2;
 6/7=2,8=2,9=2,10=2,28=1,79=1/1;
 99/5=1,9=1/99;
 ----------------------------
 From ../../cnt_8_5-1_opt.out
 ----------------------------
 Symbolic Z-matrix:
 Charge =  0 Multiplicity = 1
 6                     4.4372    0.33148   2.42058 
 6                     4.32831  -1.08262   2.6013 
 6                     3.92871   2.20304   0.9353 
 6                     4.37782   0.88643   1.10553 
 6                     4.41094   0.65717   4.86395 
 6                     4.40203  -0.7531    5.05184 
 6                     3.71407   2.48208   3.34582 
 6                     4.2832    1.1918    3.53965 
 6                     2.32825   3.8938    1.84604 
 6                     3.41231   2.9408    2.01887 
 6                     0.48886   4.57377   0.38887 
 6                     1.8098    4.25563   0.56042 
 6                     4.3783    0.97545   7.30651 
 6                     4.46542  -0.43387   7.49432 
 6                     3.54162   2.74617   5.80321 
 6                     4.21989   1.50253   5.98973 
 6                     2.03381   3.98094   4.30318 
 6                     3.17179   3.15523   4.48506 
 6                     0.14258   4.48843   2.80508 
 6                     1.53587   4.21035   2.9778 
 6                    -1.7848    4.21229   1.32638 
 6                    -0.42126   4.51185   1.49459 
 6                     4.30374   1.2895    9.75435 
 6                     4.49787  -0.11544   9.94233 
 6                     3.34075   2.98881   8.25109 
 6                     4.10826   1.8046    8.43644 
 6                     1.74798   4.1266    6.74759 
 6                     2.9479    3.37703   6.93088 
 6                    -0.17714   4.47579   5.24945 
 6                     1.22679   4.30507   5.43123 
 6                    -2.07125   3.99929   3.73234 
 6                    -0.72623   4.41956   3.92678 
 6                    -3.6344    2.78865   2.22793 
 6                    -2.5668    3.76848   2.40513 
 6                    -4.50251   1.03965   0.76556 
 6                    -4.06098   2.32884   0.94993 
 6                     4.19103   1.5809    12.20132 
 6                     4.49963   0.20593   12.39572 
 6                     3.11522   3.21499   10.69692 
 6                     3.96513   2.08456   10.87866 
 6                     1.45076   4.24126   9.19727 
 6                     2.69999   3.57705   9.38056 
 6                    -0.49122   4.45975   7.69168 
 6                     0.91812   4.38734   7.87705 
 6                    -2.34878   3.83716   6.18572 
 6                    -1.03502   4.3715    6.37374 
 6                    -3.74041   2.47785   4.67969 
 6                    -2.79807   3.5225    4.868 
 6                    -4.43154   0.65266   3.15948 
 6                    -4.01848   2.01203   3.34896 
 6                    -4.29779  -1.30487   1.65701 
 6                    -4.51503   0.10847   1.84576 
 6                    -3.35959  -3.01839   0.18933 
 6                    -4.13267  -1.90358   0.36282 
 6                     4.11848   1.89104   14.63353 
 6                     4.54095   0.56042   14.80168 
 6                     2.87855   3.4351    13.15038 
 6                     3.81623   2.36767   13.32306 
 6                     1.14666   4.32398   11.6431 
 6                     2.43085   3.75158   11.825 
 6                    -0.80863   4.40536   10.13839 
 6                     0.60752   4.43975   10.32494 
 6                    -2.60846   3.65003   8.63374 
 6                    -1.34429   4.27906   8.8216 
 6                    -3.91652   2.20217   7.12173 
 6                    -3.03919   3.30985   7.31116 
 6                    -4.46604   0.32961   5.61562 
 6                    -4.15108   1.71074   5.80399 
 6                    -4.14802  -1.58574   4.10848 
 6                    -4.45247  -0.21557   4.29575 
 6                    -3.06847  -3.21548   2.61002 
 6                    -3.92179  -2.0809    2.78568 
 6                    -1.44903  -4.29605   1.13331 
 6                    -2.65595  -3.59817   1.29819 
 6                     2.78054   3.69466   15.56779 
 6                     3.71679   2.71003   15.7393 
 6                     0.84061   4.4249    14.1093 
 6                     2.20797   3.96272   14.28216 
 6                    -1.10945   4.30479   12.58846 
 6                     0.29252   4.45692   12.78233 
 6                    -2.85327   3.43548   11.0762 
 6                    -1.63633   4.14821   11.26414 
 6                    -4.06626   1.90731   9.56977 
 6                    -3.26364   3.07495   9.75893 
 6                    -4.48761   0.0069    8.05904 
 6                    -4.26698   1.39934   8.24871 
 6                    -4.04787  -1.89898   6.55237 
 6                    -4.4473   -0.53928   6.73822 
 6                    -2.83678  -3.434     5.05497 
 6                    -3.76716  -2.37205   5.23768 
 6                    -1.10672  -4.34889   3.54238 
 6                    -2.3856   -3.75497   3.73259 
 6                     0.86855  -4.50842   2.04588 
 6                    -0.57934  -4.50777   2.21781 
 6                     2.69192  -3.80533   0.58618 
 6                     1.49927  -4.46288   0.76906 
 6                    -1.42135   4.23408   15.02254 
 6                    -0.05656   4.50335   15.19283 
 6                    -3.10192   3.20693   13.52672 
 6                    -1.9316    4.00805   13.70748 
 6                    -4.18541   1.60345   12.01238 
 6                    -3.46792   2.80938   12.20258 
 6                    -4.48587  -0.32251   10.50359 
 6                    -4.35969   1.08774   10.69147 
 6                    -3.9163   -2.18939   9.00155 
 6                    -4.40876  -0.86382   9.18706 
 6                    -2.60414  -3.6413    7.49737 
 6                    -3.60803  -2.64846   7.68091 
 6                    -0.80027  -4.41729   5.99839 
 6                    -2.13465  -3.9357    6.18238 
 6                     1.14767  -4.34386   4.49772 
 6                    -0.25196  -4.48519   4.68176 
 6                     2.89016  -3.45938   2.98052 
 6                     1.67161  -4.19027   3.16879 
 6                     4.09707  -1.9176    1.47498 
 6                     3.31962  -3.11477   1.66632 
 6                     4.52941  -0.01844  -0.00016 
 6                     4.37419  -1.36462   0.17829 
 6                    -3.36931   3.10591   15.94972 
 6                    -2.2809    3.9132    16.1282 
 6                    -4.35781   1.31758   14.46171 
 6                    -3.70966   2.58943   14.65303 
 6                    -4.46498  -0.64747   12.95929 
 6                    -4.44148   0.7733    13.14751 
 6                    -3.7585   -2.46078   11.44636 
 6                    -4.33601  -1.17802   11.63038 
 6                    -2.34121  -3.81648   9.94576 
 6                    -3.42555  -2.90171   10.12973 
 6                    -0.48969  -4.44878   8.44722 
 6                    -1.85151  -4.07593   8.63077 
 6                     1.45621  -4.24971   6.94103 
 6                     0.06202  -4.48616   7.12658 
 6                     3.12175  -3.23144   5.43656 
 6                     1.96353  -4.04585   5.62448 
 6                     4.16701  -1.5984    3.92545 
 6                     3.48116  -2.82262   4.11564 
 6                    -4.61486  -0.93295   15.35904 
 6                    -4.64192   0.42869   15.54188 
 6                    -3.61437  -2.75552   13.91031 
 6                    -4.33891  -1.50194   14.08223 
 6                    -2.05919  -3.94329   12.39557 
 6                    -3.21305  -3.13281   12.58575 
 6                    -0.17073  -4.4482    10.89046 
 6                    -1.5556   -4.17351   11.07319 
 6                     1.75656  -4.12086   9.38987 
 6                     0.37929  -4.45476   9.57576 
 6                     3.34539  -2.9955    7.87935 
 6                     2.24971  -3.88269   8.06904 
 6                     4.29493  -1.28877   6.36912 
 6                     3.68488  -2.56764   6.55827 
 6                    -1.78817  -4.09886   14.82996 
 6                    -2.99612  -3.40275   14.99483 
 6                     0.15876  -4.43641   13.34247 
 6                    -1.25047  -4.26476   13.51815 
 6                     2.03951  -3.96343   11.83236 
 6                     0.70069  -4.38482   12.01965 
 6                     3.55704  -2.73932   10.32407 
 6                     2.5184   -3.70257   10.51247 
 6                     4.38612  -0.97698   8.81688 
 6                     3.86537  -2.29051   9.00632 
 6                     0.41779  -4.53024   15.76533 
 6                    -0.93422  -4.41821   15.93884 
 6                     2.35144  -3.85544   14.28235 
 6                     1.01883  -4.37395   14.47113 
 6                     3.75184  -2.47391   12.77908 
 6                     2.78097  -3.51115   12.9686 
 6                     4.45001  -0.66189   11.26004 
 6                     4.01628  -2.00024   11.44834 
 6                     4.04778  -2.35249   15.17807 
 6                     3.15179  -3.37921   15.3625 
 6                     4.54761  -0.33867   13.72289 
 6                     4.23267  -1.75315   13.90007 
 1                     3.77147   2.55188  -0.08032 
 1                     0.09654   4.75077  -0.60947 
 1                     2.45267   4.19294  -0.3121 
 1                    -2.15077   4.10251   0.3104 
 1                    -4.7147    0.70192  -0.24352 
 1                    -3.94316   2.96843   0.08059 
 1                    -3.17201  -3.40086  -0.81094 
 1                    -4.55644  -1.41617  -0.50957 
 1                     4.62889   0.18859   15.81766 
 1                    -1.09703  -4.45483   0.11889 
 1                     2.40465   4.2199    16.44033 
 1                     4.06625   2.45877   16.73763 
 1                     3.08221  -3.70447  -0.42122 
 1                     0.98676  -4.86574  -0.09916 
 1                     0.32409   4.5418    16.20847 
 1                     4.64535   0.38915  -1.00138 
 1                     4.37504  -2.01492  -0.69082 
 1                    -3.93301   2.78164   16.81881 
 1                    -1.98587   4.21738   17.12941 
 1                    -4.70734  -1.57822   16.22728 
 1                    -4.74977   0.81714   16.54927 
 1                    -3.30967  -3.17725   16.00922 
 1                     1.05176  -4.65349   16.63773 
 1                    -1.35921  -4.44695   16.93911 
 1                     4.54305  -1.93084   16.04735 
 1                     2.96542  -3.73184   16.37158 
 
 Symmetry turned off by external request.
 Stoichiometry    C172H26
 Framework group  C1[X(C172H26)]
 Deg. of freedom   588
 Full point group                 C1      NOp   1
                          Input orientation:                          
 ---------------------------------------------------------------------
 Center     Atomic      Atomic             Coordinates (Angstroms)
 Number     Number       Type             X           Y           Z
 ---------------------------------------------------------------------
      1          6           0        4.437195    0.331476    2.420584
      2          6           0        4.328313   -1.082625    2.601295
      3          6           0        3.928709    2.203043    0.935300
      4          6           0        4.377820    0.886433    1.105534
      5          6           0        4.410941    0.657172    4.863950
      6          6           0        4.402030   -0.753104    5.051843
      7          6           0        3.714065    2.482079    3.345817
      8          6           0        4.283198    1.191799    3.539647
      9          6           0        2.328247    3.893801    1.846038
     10          6           0        3.412313    2.940801    2.018870
     11          6           0        0.488863    4.573773    0.388873
     12          6           0        1.809800    4.255632    0.560419
     13          6           0        4.378300    0.975448    7.306506
     14          6           0        4.465423   -0.433869    7.494323
     15          6           0        3.541616    2.746169    5.803211
     16          6           0        4.219893    1.502530    5.989731
     17          6           0        2.033810    3.980939    4.303183
     18          6           0        3.171794    3.155230    4.485062
     19          6           0        0.142581    4.488431    2.805081
     20          6           0        1.535865    4.210345    2.977801
     21          6           0       -1.784802    4.212293    1.326384
     22          6           0       -0.421261    4.511848    1.494586
     23          6           0        4.303736    1.289495    9.754354
     24          6           0        4.497866   -0.115438    9.942335
     25          6           0        3.340749    2.988807    8.251087
     26          6           0        4.108262    1.804597    8.436441
     27          6           0        1.747977    4.126602    6.747593
     28          6           0        2.947896    3.377028    6.930880
     29          6           0       -0.177138    4.475791    5.249454
     30          6           0        1.226785    4.305067    5.431231
     31          6           0       -2.071254    3.999286    3.732338
     32          6           0       -0.726232    4.419561    3.926780
     33          6           0       -3.634401    2.788646    2.227933
     34          6           0       -2.566799    3.768481    2.405130
     35          6           0       -4.502511    1.039653    0.765558
     36          6           0       -4.060982    2.328838    0.949930
     37          6           0        4.191029    1.580900   12.201316
     38          6           0        4.499626    0.205927   12.395720
     39          6           0        3.115222    3.214987   10.696919
     40          6           0        3.965125    2.084556   10.878660
     41          6           0        1.450755    4.241263    9.197275
     42          6           0        2.699986    3.577051    9.380559
     43          6           0       -0.491217    4.459748    7.691676
     44          6           0        0.918119    4.387344    7.877048
     45          6           0       -2.348779    3.837160    6.185722
     46          6           0       -1.035016    4.371495    6.373744
     47          6           0       -3.740410    2.477850    4.679692
     48          6           0       -2.798066    3.522502    4.868002
     49          6           0       -4.431537    0.652657    3.159479
     50          6           0       -4.018481    2.012027    3.348960
     51          6           0       -4.297792   -1.304874    1.657011
     52          6           0       -4.515027    0.108467    1.845757
     53          6           0       -3.359594   -3.018394    0.189326
     54          6           0       -4.132671   -1.903575    0.362824
     55          6           0        4.118483    1.891035   14.633532
     56          6           0        4.540949    0.560424   14.801677
     57          6           0        2.878548    3.435095   13.150385
     58          6           0        3.816232    2.367670   13.323056
     59          6           0        1.146656    4.323976   11.643102
     60          6           0        2.430851    3.751578   11.824995
     61          6           0       -0.808628    4.405359   10.138391
     62          6           0        0.607517    4.439748   10.324941
     63          6           0       -2.608455    3.650027    8.633738
     64          6           0       -1.344285    4.279062    8.821600
     65          6           0       -3.916518    2.202174    7.121732
     66          6           0       -3.039192    3.309851    7.311163
     67          6           0       -4.466040    0.329609    5.615620
     68          6           0       -4.151078    1.710741    5.803989
     69          6           0       -4.148025   -1.585741    4.108485
     70          6           0       -4.452470   -0.215570    4.295747
     71          6           0       -3.068473   -3.215477    2.610016
     72          6           0       -3.921788   -2.080896    2.785682
     73          6           0       -1.449031   -4.296049    1.133306
     74          6           0       -2.655949   -3.598169    1.298194
     75          6           0        2.780543    3.694664   15.567792
     76          6           0        3.716792    2.710025   15.739296
     77          6           0        0.840612    4.424899   14.109297
     78          6           0        2.207969    3.962720   14.282161
     79          6           0       -1.109452    4.304786   12.588459
     80          6           0        0.292522    4.456922   12.782331
     81          6           0       -2.853266    3.435478   11.076201
     82          6           0       -1.636332    4.148210   11.264141
     83          6           0       -4.066264    1.907306    9.569771
     84          6           0       -3.263645    3.074954    9.758926
     85          6           0       -4.487612    0.006900    8.059041
     86          6           0       -4.266984    1.399343    8.248710
     87          6           0       -4.047867   -1.898983    6.552367
     88          6           0       -4.447297   -0.539281    6.738222
     89          6           0       -2.836781   -3.433999    5.054969
     90          6           0       -3.767157   -2.372049    5.237685
     91          6           0       -1.106721   -4.348888    3.542378
     92          6           0       -2.385602   -3.754972    3.732585
     93          6           0        0.868549   -4.508418    2.045882
     94          6           0       -0.579344   -4.507774    2.217811
     95          6           0        2.691918   -3.805332    0.586176
     96          6           0        1.499265   -4.462879    0.769064
     97          6           0       -1.421347    4.234081   15.022540
     98          6           0       -0.056564    4.503352   15.192829
     99          6           0       -3.101920    3.206933   13.526724
    100          6           0       -1.931597    4.008052   13.707479
    101          6           0       -4.185409    1.603448   12.012382
    102          6           0       -3.467924    2.809384   12.202580
    103          6           0       -4.485872   -0.322508   10.503590
    104          6           0       -4.359687    1.087744   10.691469
    105          6           0       -3.916300   -2.189388    9.001548
    106          6           0       -4.408755   -0.863818    9.187060
    107          6           0       -2.604144   -3.641298    7.497366
    108          6           0       -3.608025   -2.648461    7.680912
    109          6           0       -0.800271   -4.417294    5.998389
    110          6           0       -2.134653   -3.935703    6.182382
    111          6           0        1.147668   -4.343861    4.497721
    112          6           0       -0.251962   -4.485187    4.681761
    113          6           0        2.890162   -3.459379    2.980524
    114          6           0        1.671610   -4.190274    3.168791
    115          6           0        4.097071   -1.917597    1.474984
    116          6           0        3.319618   -3.114771    1.666320
    117          6           0        4.529406   -0.018435   -0.000163
    118          6           0        4.374192   -1.364619    0.178294
    119          6           0       -3.369306    3.105914   15.949716
    120          6           0       -2.280899    3.913197   16.128198
    121          6           0       -4.357813    1.317575   14.461705
    122          6           0       -3.709662    2.589433   14.653034
    123          6           0       -4.464979   -0.647471   12.959294
    124          6           0       -4.441480    0.773300   13.147509
    125          6           0       -3.758498   -2.460777   11.446357
    126          6           0       -4.336006   -1.178023   11.630381
    127          6           0       -2.341209   -3.816481    9.945757
    128          6           0       -3.425553   -2.901713   10.129734
    129          6           0       -0.489690   -4.448779    8.447225
    130          6           0       -1.851511   -4.075926    8.630774
    131          6           0        1.456212   -4.249714    6.941027
    132          6           0        0.062018   -4.486157    7.126577
    133          6           0        3.121750   -3.231441    5.436560
    134          6           0        1.963533   -4.045851    5.624483
    135          6           0        4.167006   -1.598396    3.925446
    136          6           0        3.481158   -2.822619    4.115642
    137          6           0       -4.614863   -0.932950   15.359041
    138          6           0       -4.641922    0.428686   15.541878
    139          6           0       -3.614371   -2.755518   13.910312
    140          6           0       -4.338910   -1.501935   14.082228
    141          6           0       -2.059192   -3.943289   12.395568
    142          6           0       -3.213045   -3.132812   12.585754
    143          6           0       -0.170728   -4.448197   10.890459
    144          6           0       -1.555599   -4.173509   11.073194
    145          6           0        1.756558   -4.120856    9.389870
    146          6           0        0.379293   -4.454763    9.575764
    147          6           0        3.345395   -2.995495    7.879349
    148          6           0        2.249714   -3.882688    8.069037
    149          6           0        4.294928   -1.288770    6.369121
    150          6           0        3.684884   -2.567640    6.558270
    151          6           0       -1.788173   -4.098856   14.829963
    152          6           0       -2.996122   -3.402745   14.994833
    153          6           0        0.158756   -4.436406   13.342467
    154          6           0       -1.250470   -4.264758   13.518145
    155          6           0        2.039506   -3.963426   11.832361
    156          6           0        0.700685   -4.384816   12.019646
    157          6           0        3.557039   -2.739315   10.324071
    158          6           0        2.518396   -3.702572   10.512468
    159          6           0        4.386116   -0.976979    8.816883
    160          6           0        3.865370   -2.290511    9.006317
    161          6           0        0.417790   -4.530243   15.765330
    162          6           0       -0.934216   -4.418210   15.938837
    163          6           0        2.351436   -3.855444   14.282350
    164          6           0        1.018830   -4.373953   14.471134
    165          6           0        3.751835   -2.473913   12.779075
    166          6           0        2.780970   -3.511154   12.968603
    167          6           0        4.450013   -0.661887   11.260038
    168          6           0        4.016277   -2.000239   11.448338
    169          6           0        4.047784   -2.352489   15.178067
    170          6           0        3.151794   -3.379207   15.362498
    171          6           0        4.547613   -0.338674   13.722894
    172          6           0        4.232674   -1.753149   13.900069
    173          1           0        3.771473    2.551878   -0.080323
    174          1           0        0.096541    4.750773   -0.609465
    175          1           0        2.452672    4.192945   -0.312095
    176          1           0       -2.150774    4.102510    0.310400
    177          1           0       -4.714695    0.701916   -0.243524
    178          1           0       -3.943164    2.968433    0.080586
    179          1           0       -3.172009   -3.400856   -0.810942
    180          1           0       -4.556437   -1.416174   -0.509566
    181          1           0        4.628893    0.188589   15.817663
    182          1           0       -1.097029   -4.454825    0.118893
    183          1           0        2.404653    4.219900   16.440333
    184          1           0        4.066247    2.458768   16.737633
    185          1           0        3.082209   -3.704465   -0.421222
    186          1           0        0.986763   -4.865736   -0.099156
    187          1           0        0.324094    4.541795   16.208471
    188          1           0        4.645349    0.389153   -1.001376
    189          1           0        4.375040   -2.014923   -0.690815
    190          1           0       -3.933013    2.781635   16.818811
    191          1           0       -1.985873    4.217375   17.129414
    192          1           0       -4.707342   -1.578223   16.227285
    193          1           0       -4.749772    0.817135   16.549268
    194          1           0       -3.309670   -3.177254   16.009222
    195          1           0        1.051763   -4.653493   16.637726
    196          1           0       -1.359211   -4.446954   16.939112
    197          1           0        4.543045   -1.930839   16.047347
    198          1           0        2.965424   -3.731842   16.371582
 ---------------------------------------------------------------------
 Rotational constants (GHZ):           0.0119122           0.0074371           0.0074201
 Standard basis: 6-311G(d) (5D, 7F)
  3174 basis functions,  5634 primitive gaussians,  3346 cartesian basis functions
   529 alpha electrons      529 beta electrons
       nuclear repulsion energy     42857.5961601721 Hartrees.
 NAtoms=  198 NActive=  198 NUniq=  198 SFac= 1.00D+00 NAtFMM=   60 NAOKFM=T Big=T
 Integral buffers will be    131072 words long.
 Raffenetti 2 integral format.
 Two-electron integral symmetry is turned off.
 One-electron integrals computed using PRISM.
 NBasis=  3174 RedAO= T EigKep=  6.37D-06  NBF=  3174
 NBsUse=  3174 1.00D-06 EigRej= -1.00D+00 NBFU=  3174
 ExpMin= 1.03D-01 ExpMax= 4.56D+03 ExpMxC= 6.82D+02 IAcc=3 IRadAn=         5 AccDes= 0.00D+00
 Harris functional with IExCor=  402 and IRadAn=       5 diagonalized for initial guess.
 HarFok:  IExCor=  402 AccDes= 0.00D+00 IRadAn=         5 IDoV= 1 UseB2=F ITyADJ=14
 ICtDFT=  3500011 ScaDFX=  1.000000  1.000000  1.000000  1.000000
 FoFCou: FMM=F IPFlag=           0 FMFlag=      100000 FMFlg1=        2001
         NFxFlg=           0 DoJE=T BraDBF=F KetDBF=T FulRan=T
         wScrn=  0.000000 ICntrl=       500 IOpCl=  0 I1Cent=   200000004 NGrid=           0
         NMat0=    1 NMatS0=      1 NMatT0=    0 NMatD0=    1 NMtDS0=    0 NMtDT0=    0
 Symmetry not used in FoFCou.
 Requested convergence on RMS density matrix=1.00D-08 within 128 cycles.
 Requested convergence on MAX density matrix=1.00D-06.
 Requested convergence on             energy=1.00D-06.
 No special actions if energy rises.
 Integral accuracy reduced to 1.0D-05 until final iterations.
 Problem detected with inexpensive integrals.
 Switching to full accuracy and repeating last cycle.
 SCF Done:  E(RB3LYP) =  -6572.03244160     A.U. after   15 cycles
            NFock= 15  Conv=0.80D-08     -V/T= 2.0042
 Hyperfine terms turned off by default for NAtoms > 100.

 **********************************************************************

            Population analysis using the SCF Density.

 **********************************************************************

 Alpha  occ. eigenvalues --  -10.20759 -10.20759 -10.20749 -10.20749 -10.20740
 Alpha  occ. eigenvalues --  -10.20739 -10.20641 -10.20634 -10.20634 -10.20629
 Alpha  occ. eigenvalues --  -10.20628 -10.20627 -10.20614 -10.20613 -10.20612
 Alpha  occ. eigenvalues --  -10.20607 -10.20605 -10.20604 -10.20601 -10.20600
 Alpha  occ. eigenvalues --  -10.20599 -10.20597 -10.20595 -10.20590 -10.20588
 Alpha  occ. eigenvalues --  -10.20586 -10.20585 -10.20581 -10.20580 -10.20578
 Alpha  occ. eigenvalues --  -10.20572 -10.20569 -10.20568 -10.20565 -10.20564
 Alpha  occ. eigenvalues --  -10.20563 -10.20560 -10.20560 -10.20560 -10.20558
 Alpha  occ. eigenvalues --  -10.20556 -10.20556 -10.20553 -10.20553 -10.20553
 Alpha  occ. eigenvalues --  -10.20550 -10.20550 -10.20550 -10.20550 -10.20549
 Alpha  occ. eigenvalues --  -10.20547 -10.20547 -10.20544 -10.20544 -10.20543
 Alpha  occ. eigenvalues --  -10.20542 -10.20539 -10.20535 -10.20534 -10.20530
 Alpha  occ. eigenvalues --  -10.20529 -10.20526 -10.20525 -10.20522 -10.20521
 Alpha  occ. eigenvalues --  -10.20521 -10.20515 -10.20515 -10.20511 -10.20511
 Alpha  occ. eigenvalues --  -10.20509 -10.20509 -10.20508 -10.20507 -10.20505
 Alpha  occ. eigenvalues --  -10.20505 -10.20501 -10.20500 -10.20489 -10.20489
 Alpha  occ. eigenvalues --  -10.20487 -10.20486 -10.20484 -10.20484 -10.20480
 Alpha  occ. eigenvalues --  -10.20480 -10.20477 -10.20477 -10.20473 -10.20473
 Alpha  occ. eigenvalues --  -10.20472 -10.20472 -10.20468 -10.20468 -10.20457
 Alpha  occ. eigenvalues --  -10.20457 -10.20456 -10.20456 -10.20452 -10.20451
 Alpha  occ. eigenvalues --  -10.20447 -10.20447 -10.20443 -10.20443 -10.20426
 Alpha  occ. eigenvalues --  -10.20426 -10.20424 -10.20423 -10.20423 -10.20423
 Alpha  occ. eigenvalues --  -10.20415 -10.20415 -10.20413 -10.20413 -10.20409
 Alpha  occ. eigenvalues --  -10.20409 -10.20406 -10.20406 -10.20405 -10.20405
 Alpha  occ. eigenvalues --  -10.20393 -10.20393 -10.20391 -10.20391 -10.20368
 Alpha  occ. eigenvalues --  -10.20368 -10.20362 -10.20361 -10.20361 -10.20361
 Alpha  occ. eigenvalues --  -10.20326 -10.20326 -10.20318 -10.20317 -10.20215
 Alpha  occ. eigenvalues --  -10.20214 -10.20208 -10.20207 -10.20195 -10.20194
 Alpha  occ. eigenvalues --  -10.20171 -10.20170 -10.20164 -10.20164 -10.20150
 Alpha  occ. eigenvalues --  -10.20150 -10.19376 -10.19376 -10.19364 -10.19364
 Alpha  occ. eigenvalues --  -10.19356 -10.19356 -10.19349 -10.19349 -10.19339
 Alpha  occ. eigenvalues --  -10.19339 -10.19333 -10.19332 -10.19328 -10.19328
 Alpha  occ. eigenvalues --  -10.19327 -10.19327 -10.19272 -10.19272 -10.19269
 Alpha  occ. eigenvalues --  -10.19269 -10.19260 -10.19259 -10.19259 -10.19259
 Alpha  occ. eigenvalues --  -10.19259 -10.19258  -0.94777  -0.94210  -0.94206
 Alpha  occ. eigenvalues --   -0.93564  -0.93007  -0.93005  -0.92513  -0.92501
 Alpha  occ. eigenvalues --   -0.91733  -0.91400  -0.91324  -0.91154  -0.91058
 Alpha  occ. eigenvalues --   -0.89741  -0.89734  -0.89636  -0.89559  -0.89211
 Alpha  occ. eigenvalues --   -0.88771  -0.88669  -0.88550  -0.88536  -0.87395
 Alpha  occ. eigenvalues --   -0.87226  -0.86666  -0.86570  -0.86189  -0.85953
 Alpha  occ. eigenvalues --   -0.85917  -0.85818  -0.85638  -0.84840  -0.84739
 Alpha  occ. eigenvalues --   -0.84639  -0.84448  -0.83951  -0.83720  -0.83280
 Alpha  occ. eigenvalues --   -0.83096  -0.82720  -0.82258  -0.81912  -0.81467
 Alpha  occ. eigenvalues --   -0.81301  -0.81203  -0.81168  -0.80769  -0.80739
 Alpha  occ. eigenvalues --   -0.80534  -0.80303  -0.80036  -0.80010  -0.78986
 Alpha  occ. eigenvalues --   -0.78736  -0.78509  -0.78409  -0.78216  -0.77858
 Alpha  occ. eigenvalues --   -0.77817  -0.77395  -0.77391  -0.76800  -0.76688
 Alpha  occ. eigenvalues --   -0.76077  -0.75982  -0.75928  -0.75919  -0.75497
 Alpha  occ. eigenvalues --   -0.75394  -0.75100  -0.74900  -0.74897  -0.74774
 Alpha  occ. eigenvalues --   -0.74607  -0.74247  -0.74052  -0.73679  -0.73613
 Alpha  occ. eigenvalues --   -0.73021  -0.72993  -0.72487  -0.72290  -0.71740
 Alpha  occ. eigenvalues --   -0.71613  -0.69521  -0.69460  -0.68286  -0.68096
 Alpha  occ. eigenvalues --   -0.68045  -0.67893  -0.67859  -0.67697  -0.67662
 Alpha  occ. eigenvalues --   -0.67560  -0.67185  -0.67145  -0.67103  -0.66899
 Alpha  occ. eigenvalues --   -0.66808  -0.65922  -0.65897  -0.65769  -0.65541
 Alpha  occ. eigenvalues --   -0.65211  -0.65053  -0.64509  -0.64332  -0.64321
 Alpha  occ. eigenvalues --   -0.64081  -0.64034  -0.63731  -0.63328  -0.62969
 Alpha  occ. eigenvalues --   -0.62609  -0.62498  -0.62354  -0.61664  -0.61625
 Alpha  occ. eigenvalues --   -0.61463  -0.61345  -0.60546  -0.60523  -0.60268
 Alpha  occ. eigenvalues --   -0.60194  -0.59793  -0.59204  -0.58950  -0.58861
 Alpha  occ. eigenvalues --   -0.58852  -0.58501  -0.58120  -0.57834  -0.57718
 Alpha  occ. eigenvalues --   -0.57366  -0.57306  -0.56173  -0.56108  -0.55791
 Alpha  occ. eigenvalues --   -0.55595  -0.55548  -0.55341  -0.55172  -0.55128
 Alpha  occ. eigenvalues --   -0.54877  -0.54721  -0.54720  -0.54504  -0.54141
 Alpha  occ. eigenvalues --   -0.53720  -0.53453  -0.53339  -0.53184  -0.52975
 Alpha  occ. eigenvalues --   -0.52767  -0.52551  -0.52521  -0.52518  -0.52116
 Alpha  occ. eigenvalues --   -0.51793  -0.51595  -0.51123  -0.51057  -0.50876
 Alpha  occ. eigenvalues --   -0.50828  -0.50475  -0.50405  -0.50341  -0.50144
 Alpha  occ. eigenvalues --   -0.49797  -0.49755  -0.49426  -0.49317  -0.49195
 Alpha  occ. eigenvalues --   -0.49036  -0.48603  -0.48421  -0.48159  -0.48077
 Alpha  occ. eigenvalues --   -0.47915  -0.47572  -0.47345  -0.47203  -0.47045
 Alpha  occ. eigenvalues --   -0.46949  -0.46857  -0.46731  -0.46658  -0.46649
 Alpha  occ. eigenvalues --   -0.46601  -0.46577  -0.46385  -0.46334  -0.46209
 Alpha  occ. eigenvalues --   -0.46063  -0.46023  -0.45990  -0.45847  -0.45714
 Alpha  occ. eigenvalues --   -0.45611  -0.45568  -0.45404  -0.45385  -0.45247
 Alpha  occ. eigenvalues --   -0.45220  -0.45189  -0.45118  -0.44921  -0.44905
 Alpha  occ. eigenvalues --   -0.44858  -0.44700  -0.44611  -0.44332  -0.44277
 Alpha  occ. eigenvalues --   -0.44213  -0.44094  -0.44042  -0.44039  -0.43913
 Alpha  occ. eigenvalues --   -0.43904  -0.43844  -0.43594  -0.43580  -0.43569
 Alpha  occ. eigenvalues --   -0.43419  -0.43334  -0.43163  -0.43046  -0.43041
 Alpha  occ. eigenvalues --   -0.42957  -0.42901  -0.42542  -0.42420  -0.42299
 Alpha  occ. eigenvalues --   -0.42188  -0.42137  -0.42097  -0.42030  -0.41977
 Alpha  occ. eigenvalues --   -0.41888  -0.41887  -0.41879  -0.41620  -0.41605
 Alpha  occ. eigenvalues --   -0.41554  -0.41426  -0.41159  -0.41069  -0.40861
 Alpha  occ. eigenvalues --   -0.40696  -0.40673  -0.40631  -0.40595  -0.40572
 Alpha  occ. eigenvalues --   -0.40330  -0.40194  -0.40045  -0.39534  -0.39469
 Alpha  occ. eigenvalues --   -0.38703  -0.38665  -0.38442  -0.38392  -0.38333
 Alpha  occ. eigenvalues --   -0.38311  -0.38233  -0.37885  -0.37824  -0.37823
 Alpha  occ. eigenvalues --   -0.37766  -0.37573  -0.37523  -0.37252  -0.37144
 Alpha  occ. eigenvalues --   -0.36977  -0.36936  -0.36805  -0.36725  -0.36630
 Alpha  occ. eigenvalues --   -0.36533  -0.36350  -0.36335  -0.35994  -0.35909
 Alpha  occ. eigenvalues --   -0.35811  -0.35806  -0.35748  -0.35701  -0.35510
 Alpha  occ. eigenvalues --   -0.34729  -0.34720  -0.34680  -0.34526  -0.34480
 Alpha  occ. eigenvalues --   -0.34334  -0.34284  -0.34253  -0.34065  -0.34051
 Alpha  occ. eigenvalues --   -0.33997  -0.33826  -0.33203  -0.33085  -0.32957
 Alpha  occ. eigenvalues --   -0.32881  -0.32848  -0.32779  -0.32551  -0.32301
 Alpha  occ. eigenvalues --   -0.32057  -0.32053  -0.31879  -0.31350  -0.31271
 Alpha  occ. eigenvalues --   -0.31087  -0.31041  -0.30518  -0.30370  -0.30315
 Alpha  occ. eigenvalues --   -0.30271  -0.30069  -0.30033  -0.29217  -0.29066
 Alpha  occ. eigenvalues --   -0.28749  -0.28655  -0.28218  -0.27529  -0.27508
 Alpha  occ. eigenvalues --   -0.27266  -0.27149  -0.27043  -0.26969  -0.26808
 Alpha  occ. eigenvalues --   -0.26738  -0.25756  -0.25623  -0.25432  -0.25259
 Alpha  occ. eigenvalues --   -0.25259  -0.24965  -0.24927  -0.24891  -0.24672
 Alpha  occ. eigenvalues --   -0.24001  -0.23897  -0.23838  -0.23369  -0.22556
 Alpha  occ. eigenvalues --   -0.22505  -0.21811  -0.21770  -0.21394  -0.21283
 Alpha  occ. eigenvalues --   -0.20006  -0.19726  -0.17079  -0.16872
 Alpha virt. eigenvalues --   -0.11936  -0.11693  -0.09161  -0.08888  -0.08024
 Alpha virt. eigenvalues --   -0.07971  -0.07133  -0.07117  -0.06791  -0.06707
 Alpha virt. eigenvalues --   -0.06414  -0.06287  -0.06264  -0.06091  -0.05960
 Alpha virt. eigenvalues --   -0.05737  -0.05648  -0.05609  -0.05513  -0.04954
 Alpha virt. eigenvalues --   -0.04944  -0.04579  -0.04513  -0.03949  -0.03645
 Alpha virt. eigenvalues --   -0.03296  -0.03167  -0.02980  -0.02824  -0.02184
 Alpha virt. eigenvalues --   -0.01901  -0.01831  -0.01644  -0.01357  -0.00131
 Alpha virt. eigenvalues --   -0.00000   0.00218   0.00357   0.00676   0.00814
 Alpha virt. eigenvalues --    0.01080   0.01202   0.01324   0.01380   0.02260
 Alpha virt. eigenvalues --    0.02903   0.03167   0.03418   0.03465   0.03692
 Alpha virt. eigenvalues --    0.03756   0.03816   0.03997   0.04337   0.04408
 Alpha virt. eigenvalues --    0.04458   0.04460   0.05145   0.05257   0.05290
 Alpha virt. eigenvalues --    0.05420   0.05842   0.05848   0.06417   0.06851
 Alpha virt. eigenvalues --    0.07378   0.07459   0.07538   0.07713   0.08040
 Alpha virt. eigenvalues --    0.08139   0.08225   0.08269   0.08481   0.09056
 Alpha virt. eigenvalues --    0.09220   0.09330   0.09617   0.10073   0.10103
 Alpha virt. eigenvalues --    0.10814   0.11298   0.11734   0.11755   0.11984
 Alpha virt. eigenvalues --    0.12025   0.12543   0.12605   0.12825   0.13417
 Alpha virt. eigenvalues --    0.13493   0.13682   0.13766   0.14065   0.14471
 Alpha virt. eigenvalues --    0.14531   0.14806   0.14875   0.15148   0.15170
 Alpha virt. eigenvalues --    0.15234   0.15345   0.15718   0.15940   0.16000
 Alpha virt. eigenvalues --    0.16049   0.16062   0.16317   0.16928   0.16944
 Alpha virt. eigenvalues --    0.16999   0.17373   0.17449   0.17777   0.17862
 Alpha virt. eigenvalues --    0.18208   0.18523   0.18743   0.19080   0.19124
 Alpha virt. eigenvalues --    0.19242   0.19454   0.19599   0.19643   0.19944
 Alpha virt. eigenvalues --    0.20025   0.20128   0.20145   0.20176   0.20318
 Alpha virt. eigenvalues --    0.20404   0.20432   0.20644   0.20998   0.21092
 Alpha virt. eigenvalues --    0.21185   0.21342   0.21439   0.21647   0.21665
 Alpha virt. eigenvalues --    0.21683   0.21832   0.22061   0.22181   0.22192
 Alpha virt. eigenvalues --    0.22313   0.22363   0.22411   0.22582   0.22724
 Alpha virt. eigenvalues --    0.22791   0.23029   0.23258   0.23485   0.23532
 Alpha virt. eigenvalues --    0.23633   0.23853   0.24123   0.24338   0.24368
 Alpha virt. eigenvalues --    0.24619   0.24646   0.24780   0.24907   0.24954
 Alpha virt. eigenvalues --    0.24986   0.25151   0.25204   0.25251   0.25474
 Alpha virt. eigenvalues --    0.25582   0.25615   0.25898   0.26027   0.26143
 Alpha virt. eigenvalues --    0.26517   0.26960   0.26971   0.27097   0.27097
 Alpha virt. eigenvalues --    0.27251   0.27513   0.27622   0.27641   0.27837
 Alpha virt. eigenvalues --    0.27935   0.28054   0.28068   0.28526   0.28668
 Alpha virt. eigenvalues --    0.28806   0.28879   0.29191   0.29248   0.29504
 Alpha virt. eigenvalues --    0.29631   0.29678   0.29703   0.29771   0.29987
 Alpha virt. eigenvalues --    0.30256   0.30262   0.30522   0.30574   0.30962
 Alpha virt. eigenvalues --    0.31507   0.31689   0.31883   0.31934   0.32167
 Alpha virt. eigenvalues --    0.32179   0.32293   0.32644   0.32682   0.33251
 Alpha virt. eigenvalues --    0.33266   0.33355   0.33414   0.33489   0.33581
 Alpha virt. eigenvalues --    0.33690   0.33847   0.33851   0.34050   0.34130
 Alpha virt. eigenvalues --    0.34230   0.34277   0.34342   0.34343   0.34698
 Alpha virt. eigenvalues --    0.34879   0.35064   0.35067   0.35112   0.35191
 Alpha virt. eigenvalues --    0.35200   0.35365   0.35639   0.35728   0.35937
 Alpha virt. eigenvalues --    0.36198   0.36255   0.36319   0.36340   0.36393
 Alpha virt. eigenvalues --    0.36616   0.36637   0.36705   0.36806   0.36931
 Alpha virt. eigenvalues --    0.36986   0.37052   0.37135   0.37153   0.37283
 Alpha virt. eigenvalues --    0.37284   0.37396   0.37424   0.37426   0.37534
 Alpha virt. eigenvalues --    0.37587   0.37738   0.37849   0.37870   0.37940
 Alpha virt. eigenvalues --    0.38049   0.38097   0.38192   0.38232   0.38337
 Alpha virt. eigenvalues --    0.38350   0.38427   0.38443   0.38490   0.38559
 Alpha virt. eigenvalues --    0.38593   0.38616   0.38640   0.38699   0.38748
 Alpha virt. eigenvalues --    0.38769   0.38821   0.38835   0.38941   0.38946
 Alpha virt. eigenvalues --    0.39191   0.39241   0.39355   0.39451   0.39532
 Alpha virt. eigenvalues --    0.39553   0.39641   0.39745   0.39872   0.39891
 Alpha virt. eigenvalues --    0.39904   0.39958   0.40139   0.40217   0.40351
 Alpha virt. eigenvalues --    0.40426   0.40442   0.40528   0.40624   0.40725
 Alpha virt. eigenvalues --    0.40727   0.40886   0.40909   0.40961   0.41007
 Alpha virt. eigenvalues --    0.41023   0.41091   0.41189   0.41235   0.41330
 Alpha virt. eigenvalues --    0.41370   0.41387   0.41457   0.41560   0.41656
 Alpha virt. eigenvalues --    0.41667   0.41714   0.41766   0.41822   0.41851
 Alpha virt. eigenvalues --    0.41940   0.42013   0.42037   0.42073   0.42113
 Alpha virt. eigenvalues --    0.42176   0.42236   0.42284   0.42401   0.42563
 Alpha virt. eigenvalues --    0.42601   0.42689   0.42691   0.42852   0.42885
 Alpha virt. eigenvalues --    0.42917   0.43015   0.43047   0.43132   0.43183
 Alpha virt. eigenvalues --    0.43208   0.43259   0.43363   0.43470   0.43481
 Alpha virt. eigenvalues --    0.43525   0.43553   0.43621   0.43626   0.43675
 Alpha virt. eigenvalues --    0.43717   0.43784   0.43818   0.43824   0.43974
 Alpha virt. eigenvalues --    0.44019   0.44029   0.44094   0.44117   0.44121
 Alpha virt. eigenvalues --    0.44183   0.44233   0.44263   0.44308   0.44390
 Alpha virt. eigenvalues --    0.44409   0.44415   0.44509   0.44570   0.44616
 Alpha virt. eigenvalues --    0.44658   0.44687   0.44702   0.44829   0.44847
 Alpha virt. eigenvalues --    0.44908   0.44948   0.45015   0.45071   0.45135
 Alpha virt. eigenvalues --    0.45184   0.45201   0.45263   0.45371   0.45408
 Alpha virt. eigenvalues --    0.45409   0.45517   0.45591   0.45635   0.45677
 Alpha virt. eigenvalues --    0.45727   0.45731   0.45926   0.46044   0.46069
 Alpha virt. eigenvalues --    0.46150   0.46243   0.46280   0.46317   0.46401
 Alpha virt. eigenvalues --    0.46415   0.46424   0.46437   0.46532   0.46774
 Alpha virt. eigenvalues --    0.46871   0.46912   0.46958   0.46978   0.47067
 Alpha virt. eigenvalues --    0.47143   0.47165   0.47188   0.47311   0.47383
 Alpha virt. eigenvalues --    0.47564   0.47575   0.47707   0.47740   0.47770
 Alpha virt. eigenvalues --    0.47801   0.47844   0.47915   0.47967   0.48015
 Alpha virt. eigenvalues --    0.48343   0.48346   0.48441   0.48510   0.48566
 Alpha virt. eigenvalues --    0.48613   0.48704   0.48794   0.48892   0.48934
 Alpha virt. eigenvalues --    0.49055   0.49074   0.49268   0.49329   0.49492
 Alpha virt. eigenvalues --    0.49589   0.49861   0.50025   0.50106   0.50150
 Alpha virt. eigenvalues --    0.50182   0.50306   0.50315   0.50402   0.50525
 Alpha virt. eigenvalues --    0.50700   0.50809   0.50851   0.50986   0.50988
 Alpha virt. eigenvalues --    0.51268   0.51361   0.51403   0.51416   0.51462
 Alpha virt. eigenvalues --    0.51652   0.51688   0.51829   0.51877   0.51975
 Alpha virt. eigenvalues --    0.52009   0.52131   0.52267   0.52292   0.52390
 Alpha virt. eigenvalues --    0.52722   0.52973   0.53058   0.53126   0.53314
 Alpha virt. eigenvalues --    0.53405   0.53485   0.53556   0.53843   0.54102
 Alpha virt. eigenvalues --    0.54112   0.54268   0.54431   0.54632   0.54637
 Alpha virt. eigenvalues --    0.54738   0.54818   0.54913   0.54943   0.55186
 Alpha virt. eigenvalues --    0.55333   0.55337   0.55686   0.55698   0.55897
 Alpha virt. eigenvalues --    0.56072   0.56177   0.56203   0.56321   0.56376
 Alpha virt. eigenvalues --    0.56475   0.56706   0.56721   0.56798   0.56801
 Alpha virt. eigenvalues --    0.56944   0.57017   0.57263   0.57312   0.57459
 Alpha virt. eigenvalues --    0.57532   0.57769   0.57785   0.57882   0.57939
 Alpha virt. eigenvalues --    0.57964   0.58323   0.58379   0.58414   0.58427
 Alpha virt. eigenvalues --    0.58755   0.58806   0.58877   0.58910   0.59197
 Alpha virt. eigenvalues --    0.59245   0.59310   0.59357   0.59440   0.59556
 Alpha virt. eigenvalues --    0.59584   0.59730   0.59907   0.59950   0.59993
 Alpha virt. eigenvalues --    0.60184   0.60208   0.60300   0.60340   0.60528
 Alpha virt. eigenvalues --    0.60566   0.60695   0.60909   0.60939   0.61009
 Alpha virt. eigenvalues --    0.61032   0.61302   0.61326   0.61575   0.61632
 Alpha virt. eigenvalues --    0.61850   0.61878   0.61968   0.62238   0.62325
 Alpha virt. eigenvalues --    0.62506   0.62667   0.62696   0.62804   0.62825
 Alpha virt. eigenvalues --    0.62870   0.62903   0.63066   0.63280   0.63323
 Alpha virt. eigenvalues --    0.63328   0.63499   0.63667   0.63772   0.63834
 Alpha virt. eigenvalues --    0.63888   0.63999   0.64105   0.64203   0.64260
 Alpha virt. eigenvalues --    0.64346   0.64674   0.64694   0.64776   0.64799
 Alpha virt. eigenvalues --    0.64914   0.65002   0.65210   0.65245   0.65372
 Alpha virt. eigenvalues --    0.65498   0.65513   0.65602   0.65762   0.65767
 Alpha virt. eigenvalues --    0.66077   0.66163   0.66229   0.66419   0.66588
 Alpha virt. eigenvalues --    0.66602   0.66634   0.66681   0.66851   0.66866
 Alpha virt. eigenvalues --    0.66961   0.67109   0.67192   0.67216   0.67305
 Alpha virt. eigenvalues --    0.67320   0.67362   0.67407   0.67514   0.67589
 Alpha virt. eigenvalues --    0.67640   0.67746   0.67904   0.67960   0.68040
 Alpha virt. eigenvalues --    0.68097   0.68183   0.68235   0.68357   0.68586
 Alpha virt. eigenvalues --    0.68601   0.68716   0.68984   0.69296   0.69354
 Alpha virt. eigenvalues --    0.69514   0.69541   0.69646   0.69878   0.69953
 Alpha virt. eigenvalues --    0.70009   0.70096   0.70368   0.70377   0.70535
 Alpha virt. eigenvalues --    0.70595   0.70768   0.70805   0.71051   0.71140
 Alpha virt. eigenvalues --    0.71261   0.71602   0.71611   0.71843   0.71867
 Alpha virt. eigenvalues --    0.71936   0.71992   0.72119   0.72181   0.72295
 Alpha virt. eigenvalues --    0.72320   0.72703   0.72792   0.72882   0.72892
 Alpha virt. eigenvalues --    0.72963   0.73167   0.73285   0.73338   0.73501
 Alpha virt. eigenvalues --    0.73733   0.73798   0.74005   0.74015   0.74029
 Alpha virt. eigenvalues --    0.74120   0.74305   0.74336   0.74690   0.74716
 Alpha virt. eigenvalues --    0.74856   0.74883   0.75002   0.75063   0.75146
 Alpha virt. eigenvalues --    0.75147   0.75343   0.75403   0.75438   0.75639
 Alpha virt. eigenvalues --    0.75656   0.75817   0.75841   0.76080   0.76182
 Alpha virt. eigenvalues --    0.76192   0.76370   0.76417   0.76622   0.76689
 Alpha virt. eigenvalues --    0.76745   0.76989   0.77060   0.77320   0.77540
 Alpha virt. eigenvalues --    0.77567   0.77963   0.78047   0.78304   0.78345
 Alpha virt. eigenvalues --    0.78700   0.78702   0.78865   0.78892   0.79036
 Alpha virt. eigenvalues --    0.79127   0.79312   0.79626   0.79732   0.79778
 Alpha virt. eigenvalues --    0.79798   0.79923   0.79982   0.80050   0.80051
 Alpha virt. eigenvalues --    0.80077   0.80352   0.80522   0.80734   0.80782
 Alpha virt. eigenvalues --    0.81050   0.81083   0.81145   0.81216   0.81268
 Alpha virt. eigenvalues --    0.81490   0.81642   0.81746   0.81799   0.81967
 Alpha virt. eigenvalues --    0.82012   0.82296   0.82325   0.82364   0.82572
 Alpha virt. eigenvalues --    0.82619   0.82681   0.82731   0.83107   0.83378
 Alpha virt. eigenvalues --    0.83423   0.83630   0.83732   0.83905   0.84015
 Alpha virt. eigenvalues --    0.84368   0.84420   0.84471   0.84615   0.84716
 Alpha virt. eigenvalues --    0.84888   0.84925   0.85176   0.85201   0.85484
 Alpha virt. eigenvalues --    0.85511   0.85633   0.85736   0.85853   0.85972
 Alpha virt. eigenvalues --    0.86025   0.86223   0.86472   0.86479   0.86541
 Alpha virt. eigenvalues --    0.87086   0.87175   0.87210   0.87293   0.87569
 Alpha virt. eigenvalues --    0.87649   0.88025   0.88048   0.88206   0.88477
 Alpha virt. eigenvalues --    0.88600   0.88642   0.88733   0.88741   0.88752
 Alpha virt. eigenvalues --    0.88831   0.88885   0.88901   0.89050   0.89095
 Alpha virt. eigenvalues --    0.89243   0.89386   0.89680   0.89818   0.89822
 Alpha virt. eigenvalues --    0.89908   0.90042   0.90258   0.90462   0.90710
 Alpha virt. eigenvalues --    0.90779   0.91001   0.91168   0.91268   0.91457
 Alpha virt. eigenvalues --    0.91504   0.91610   0.91726   0.91946   0.92102
 Alpha virt. eigenvalues --    0.92139   0.92250   0.92311   0.92620   0.92649
 Alpha virt. eigenvalues --    0.92773   0.93058   0.93346   0.93665   0.94055
 Alpha virt. eigenvalues --    0.94117   0.94197   0.94297   0.94470   0.94648
 Alpha virt. eigenvalues --    0.94736   0.94877   0.94994   0.95004   0.95173
 Alpha virt. eigenvalues --    0.95180   0.95418   0.95552   0.95561   0.95632
 Alpha virt. eigenvalues --    0.95659   0.95695   0.95896   0.96031   0.96066
 Alpha virt. eigenvalues --    0.96108   0.96245   0.96356   0.96467   0.96707
 Alpha virt. eigenvalues --    0.96763   0.96933   0.97009   0.97230   0.97307
 Alpha virt. eigenvalues --    0.97425   0.97546   0.97615   0.97810   0.97955
 Alpha virt. eigenvalues --    0.98002   0.98167   0.98354   0.98402   0.98611
 Alpha virt. eigenvalues --    0.98644   0.98773   0.98822   0.98861   0.99032
 Alpha virt. eigenvalues --    0.99089   0.99308   0.99451   0.99676   0.99677
 Alpha virt. eigenvalues --    0.99722   0.99789   0.99823   1.00028   1.00068
 Alpha virt. eigenvalues --    1.00209   1.00318   1.00709   1.00715   1.00812
 Alpha virt. eigenvalues --    1.00864   1.01035   1.01088   1.01307   1.01343
 Alpha virt. eigenvalues --    1.01403   1.01604   1.01969   1.02075   1.02121
 Alpha virt. eigenvalues --    1.02263   1.02274   1.02609   1.02822   1.02907
 Alpha virt. eigenvalues --    1.02988   1.03016   1.03224   1.03387   1.03388
 Alpha virt. eigenvalues --    1.03554   1.03743   1.03885   1.03896   1.03964
 Alpha virt. eigenvalues --    1.04052   1.04075   1.04124   1.04339   1.04463
 Alpha virt. eigenvalues --    1.04800   1.05003   1.05264   1.05356   1.05370
 Alpha virt. eigenvalues --    1.05516   1.05672   1.05733   1.05960   1.06175
 Alpha virt. eigenvalues --    1.06549   1.06845   1.06848   1.07014   1.07383
 Alpha virt. eigenvalues --    1.07571   1.07710   1.07865   1.08065   1.08113
 Alpha virt. eigenvalues --    1.08269   1.08293   1.08423   1.08833   1.08872
 Alpha virt. eigenvalues --    1.09004   1.09126   1.09361   1.09519   1.09624
 Alpha virt. eigenvalues --    1.09686   1.09744   1.09947   1.10178   1.10205
 Alpha virt. eigenvalues --    1.10417   1.10464   1.10534   1.10577   1.10825
 Alpha virt. eigenvalues --    1.10923   1.11060   1.11298   1.11314   1.11505
 Alpha virt. eigenvalues --    1.11507   1.11736   1.11789   1.11930   1.12179
 Alpha virt. eigenvalues --    1.12421   1.12587   1.12969   1.13101   1.13224
 Alpha virt. eigenvalues --    1.13248   1.13343   1.13613   1.13783   1.13987
 Alpha virt. eigenvalues --    1.14411   1.14599   1.15179   1.15338   1.15519
 Alpha virt. eigenvalues --    1.15687   1.15800   1.15871   1.15996   1.16244
 Alpha virt. eigenvalues --    1.16326   1.16518   1.16966   1.17036   1.17225
 Alpha virt. eigenvalues --    1.17229   1.17415   1.17517   1.17663   1.17852
 Alpha virt. eigenvalues --    1.18107   1.18152   1.18397   1.18582   1.18780
 Alpha virt. eigenvalues --    1.18947   1.18996   1.19101   1.19103   1.19253
 Alpha virt. eigenvalues --    1.19255   1.19599   1.19942   1.20233   1.20292
 Alpha virt. eigenvalues --    1.20376   1.20523   1.20811   1.20850   1.20967
 Alpha virt. eigenvalues --    1.21122   1.21215   1.21551   1.21568   1.21898
 Alpha virt. eigenvalues --    1.22128   1.22318   1.22561   1.22580   1.22757
 Alpha virt. eigenvalues --    1.22862   1.23173   1.23243   1.23442   1.23800
 Alpha virt. eigenvalues --    1.23865   1.23975   1.24175   1.24207   1.24242
 Alpha virt. eigenvalues --    1.24658   1.24719   1.24808   1.24871   1.25155
 Alpha virt. eigenvalues --    1.25229   1.25538   1.25685   1.25833   1.25885
 Alpha virt. eigenvalues --    1.26435   1.26602   1.26647   1.26764   1.26888
 Alpha virt. eigenvalues --    1.26937   1.26987   1.27052   1.27212   1.27282
 Alpha virt. eigenvalues --    1.27999   1.28037   1.28193   1.28410   1.28735
 Alpha virt. eigenvalues --    1.28781   1.28911   1.29243   1.29324   1.29360
 Alpha virt. eigenvalues --    1.29419   1.29647   1.29673   1.29951   1.29977
 Alpha virt. eigenvalues --    1.30023   1.30075   1.30486   1.30523   1.30748
 Alpha virt. eigenvalues --    1.30904   1.31025   1.31095   1.31205   1.31281
 Alpha virt. eigenvalues --    1.31342   1.31777   1.31835   1.31897   1.31951
 Alpha virt. eigenvalues --    1.32243   1.32301   1.32313   1.32615   1.32700
 Alpha virt. eigenvalues --    1.32833   1.33276   1.33344   1.33383   1.33446
 Alpha virt. eigenvalues --    1.33585   1.33648   1.33770   1.33791   1.34017
 Alpha virt. eigenvalues --    1.34245   1.34384   1.34406   1.34644   1.35009
 Alpha virt. eigenvalues --    1.35018   1.35130   1.35343   1.35396   1.35558
 Alpha virt. eigenvalues --    1.35640   1.35768   1.36086   1.36397   1.36479
 Alpha virt. eigenvalues --    1.36611   1.36691   1.37036   1.37080   1.37173
 Alpha virt. eigenvalues --    1.37374   1.37438   1.37552   1.37691   1.37701
 Alpha virt. eigenvalues --    1.37986   1.38012   1.38051   1.38117   1.38353
 Alpha virt. eigenvalues --    1.38391   1.38545   1.38875   1.38963   1.39302
 Alpha virt. eigenvalues --    1.39319   1.39409   1.39465   1.39687   1.39793
 Alpha virt. eigenvalues --    1.39910   1.40083   1.40394   1.40479   1.40524
 Alpha virt. eigenvalues --    1.40564   1.40823   1.40837   1.41139   1.41190
 Alpha virt. eigenvalues --    1.41210   1.41449   1.41454   1.41525   1.41595
 Alpha virt. eigenvalues --    1.41673   1.41708   1.41727   1.41925   1.42030
 Alpha virt. eigenvalues --    1.42061   1.42209   1.42292   1.42390   1.42625
 Alpha virt. eigenvalues --    1.42708   1.42788   1.42949   1.42959   1.43048
 Alpha virt. eigenvalues --    1.43209   1.43226   1.43342   1.43376   1.43403
 Alpha virt. eigenvalues --    1.43441   1.43461   1.43726   1.43738   1.43882
 Alpha virt. eigenvalues --    1.44009   1.44137   1.44181   1.44267   1.44441
 Alpha virt. eigenvalues --    1.44590   1.44709   1.44754   1.44900   1.45089
 Alpha virt. eigenvalues --    1.45117   1.45159   1.45293   1.45879   1.45974
 Alpha virt. eigenvalues --    1.45999   1.46122   1.46439   1.46569   1.46727
 Alpha virt. eigenvalues --    1.46807   1.47034   1.47084   1.47132   1.47261
 Alpha virt. eigenvalues --    1.47323   1.47356   1.47507   1.47628   1.47705
 Alpha virt. eigenvalues --    1.47813   1.47879   1.47928   1.47989   1.48252
 Alpha virt. eigenvalues --    1.48420   1.48440   1.48592   1.48807   1.48948
 Alpha virt. eigenvalues --    1.49002   1.49345   1.49347   1.50104   1.50303
 Alpha virt. eigenvalues --    1.50323   1.50450   1.50566   1.50815   1.50853
 Alpha virt. eigenvalues --    1.51154   1.51170   1.51189   1.51276   1.51399
 Alpha virt. eigenvalues --    1.51459   1.51506   1.51585   1.51699   1.51795
 Alpha virt. eigenvalues --    1.51904   1.52041   1.52295   1.52412   1.52564
 Alpha virt. eigenvalues --    1.52643   1.52658   1.52900   1.53004   1.53042
 Alpha virt. eigenvalues --    1.53225   1.53274   1.53333   1.53411   1.53449
 Alpha virt. eigenvalues --    1.53551   1.53590   1.53681   1.53755   1.53873
 Alpha virt. eigenvalues --    1.53981   1.53994   1.54061   1.54177   1.54299
 Alpha virt. eigenvalues --    1.54457   1.54516   1.54542   1.54550   1.54735
 Alpha virt. eigenvalues --    1.54969   1.55106   1.55134   1.55252   1.55269
 Alpha virt. eigenvalues --    1.55329   1.55405   1.55432   1.55602   1.55703
 Alpha virt. eigenvalues --    1.55729   1.55768   1.55890   1.56028   1.56071
 Alpha virt. eigenvalues --    1.56240   1.56531   1.56582   1.56666   1.56678
 Alpha virt. eigenvalues --    1.56785   1.56947   1.57014   1.57298   1.57432
 Alpha virt. eigenvalues --    1.57501   1.57513   1.57734   1.57833   1.57899
 Alpha virt. eigenvalues --    1.57978   1.58070   1.58311   1.58368   1.58402
 Alpha virt. eigenvalues --    1.58750   1.59075   1.59090   1.59355   1.59501
 Alpha virt. eigenvalues --    1.59717   1.59895   1.60045   1.60159   1.60451
 Alpha virt. eigenvalues --    1.60614   1.60797   1.60862   1.60944   1.61133
 Alpha virt. eigenvalues --    1.61171   1.61469   1.61589   1.61696   1.62064
 Alpha virt. eigenvalues --    1.62328   1.62432   1.62500   1.62903   1.63114
 Alpha virt. eigenvalues --    1.63299   1.63553   1.63709   1.63737   1.63790
 Alpha virt. eigenvalues --    1.63794   1.63955   1.64091   1.64268   1.64547
 Alpha virt. eigenvalues --    1.64695   1.64855   1.64868   1.64959   1.65201
 Alpha virt. eigenvalues --    1.65359   1.66022   1.66119   1.66219   1.66543
 Alpha virt. eigenvalues --    1.66978   1.67163   1.67255   1.67508   1.67711
 Alpha virt. eigenvalues --    1.67737   1.68043   1.68254   1.68488   1.68857
 Alpha virt. eigenvalues --    1.68916   1.69263   1.69995   1.70011   1.70585
 Alpha virt. eigenvalues --    1.70795   1.70857   1.71053   1.71177   1.71660
 Alpha virt. eigenvalues --    1.71730   1.71856   1.72234   1.72466   1.72689
 Alpha virt. eigenvalues --    1.72944   1.73221   1.73410   1.73441   1.73673
 Alpha virt. eigenvalues --    1.73949   1.74082   1.74293   1.74564   1.74751
 Alpha virt. eigenvalues --    1.74898   1.75075   1.75196   1.75341   1.75523
 Alpha virt. eigenvalues --    1.75652   1.75743   1.75827   1.75942   1.75956
 Alpha virt. eigenvalues --    1.76148   1.76413   1.76606   1.76621   1.76771
 Alpha virt. eigenvalues --    1.76919   1.77097   1.77174   1.77273   1.77440
 Alpha virt. eigenvalues --    1.77783   1.77822   1.77929   1.77992   1.78154
 Alpha virt. eigenvalues --    1.78306   1.78372   1.78538   1.78699   1.78897
 Alpha virt. eigenvalues --    1.78948   1.79336   1.79337   1.79493   1.79568
 Alpha virt. eigenvalues --    1.79681   1.79795   1.79845   1.80031   1.80139
 Alpha virt. eigenvalues --    1.80240   1.80469   1.80751   1.81118   1.81362
 Alpha virt. eigenvalues --    1.81424   1.81675   1.81881   1.81999   1.82010
 Alpha virt. eigenvalues --    1.82104   1.82401   1.82505   1.82631   1.82764
 Alpha virt. eigenvalues --    1.82850   1.82989   1.83250   1.83287   1.83552
 Alpha virt. eigenvalues --    1.83731   1.83762   1.83899   1.83912   1.84038
 Alpha virt. eigenvalues --    1.84294   1.84326   1.84361   1.84703   1.84822
 Alpha virt. eigenvalues --    1.85112   1.85138   1.85179   1.85405   1.85450
 Alpha virt. eigenvalues --    1.85825   1.85844   1.86056   1.86180   1.86264
 Alpha virt. eigenvalues --    1.86296   1.86454   1.86664   1.86759   1.86891
 Alpha virt. eigenvalues --    1.86918   1.86975   1.87008   1.87202   1.87308
 Alpha virt. eigenvalues --    1.87339   1.87442   1.87490   1.87622   1.87697
 Alpha virt. eigenvalues --    1.87760   1.87792   1.88171   1.88210   1.88341
 Alpha virt. eigenvalues --    1.88383   1.88408   1.88493   1.88595   1.88697
 Alpha virt. eigenvalues --    1.88745   1.88782   1.88869   1.88921   1.89032
 Alpha virt. eigenvalues --    1.89078   1.89104   1.89235   1.89289   1.89370
 Alpha virt. eigenvalues --    1.89403   1.89490   1.89585   1.89620   1.89670
 Alpha virt. eigenvalues --    1.89798   1.89873   1.89952   1.90008   1.90199
 Alpha virt. eigenvalues --    1.90223   1.90319   1.90412   1.90631   1.90681
 Alpha virt. eigenvalues --    1.90777   1.90842   1.90884   1.90929   1.91084
 Alpha virt. eigenvalues --    1.91274   1.91370   1.91443   1.91610   1.91681
 Alpha virt. eigenvalues --    1.91754   1.91992   1.91998   1.92316   1.92359
 Alpha virt. eigenvalues --    1.92438   1.92809   1.93058   1.93372   1.93521
 Alpha virt. eigenvalues --    1.93877   1.93898   1.94108   1.94888   1.94907
 Alpha virt. eigenvalues --    1.95217   1.95418   1.95740   1.95798   1.95946
 Alpha virt. eigenvalues --    1.95976   1.96787   1.97097   1.97279   1.97381
 Alpha virt. eigenvalues --    1.97409   1.97614   1.97950   1.98046   1.98373
 Alpha virt. eigenvalues --    1.98532   1.98884   1.98964   1.99356   1.99426
 Alpha virt. eigenvalues --    1.99887   1.99935   1.99964   2.00180   2.00415
 Alpha virt. eigenvalues --    2.00431   2.00821   2.01315   2.01573   2.01615
 Alpha virt. eigenvalues --    2.01807   2.02062   2.02337   2.02785   2.02987
 Alpha virt. eigenvalues --    2.03264   2.03477   2.03544   2.03791   2.03863
 Alpha virt. eigenvalues --    2.04109   2.04381   2.04539   2.04578   2.05011
 Alpha virt. eigenvalues --    2.05046   2.05182   2.05447   2.06040   2.06054
 Alpha virt. eigenvalues --    2.06284   2.06401   2.06515   2.06909   2.07014
 Alpha virt. eigenvalues --    2.07091   2.07349   2.07511   2.07673   2.07831
 Alpha virt. eigenvalues --    2.08058   2.08491   2.08731   2.08874   2.09023
 Alpha virt. eigenvalues --    2.09222   2.09324   2.09868   2.09917   2.10015
 Alpha virt. eigenvalues --    2.10513   2.10658   2.10796   2.10902   2.10978
 Alpha virt. eigenvalues --    2.11020   2.11095   2.11301   2.11374   2.11433
 Alpha virt. eigenvalues --    2.11448   2.11790   2.12062   2.12090   2.12161
 Alpha virt. eigenvalues --    2.12762   2.13043   2.13063   2.13148   2.13215
 Alpha virt. eigenvalues --    2.13254   2.13490   2.13551   2.13720   2.13966
 Alpha virt. eigenvalues --    2.14028   2.14053   2.14428   2.14747   2.14802
 Alpha virt. eigenvalues --    2.14935   2.15061   2.15087   2.15263   2.15528
 Alpha virt. eigenvalues --    2.15584   2.15785   2.15921   2.16194   2.17090
 Alpha virt. eigenvalues --    2.17174   2.17268   2.17274   2.17454   2.17579
 Alpha virt. eigenvalues --    2.17737   2.17872   2.18094   2.18125   2.18141
 Alpha virt. eigenvalues --    2.18349   2.18384   2.18705   2.18756   2.19000
 Alpha virt. eigenvalues --    2.19097   2.19212   2.19638   2.19813   2.20024
 Alpha virt. eigenvalues --    2.20132   2.20199   2.20333   2.20733   2.20824
 Alpha virt. eigenvalues --    2.21144   2.21470   2.21533   2.21585   2.21711
 Alpha virt. eigenvalues --    2.21959   2.22044   2.22360   2.22715   2.22933
 Alpha virt. eigenvalues --    2.23421   2.23539   2.23611   2.23653   2.23768
 Alpha virt. eigenvalues --    2.23913   2.24038   2.24095   2.24157   2.24405
 Alpha virt. eigenvalues --    2.24695   2.24793   2.24831   2.25077   2.25134
 Alpha virt. eigenvalues --    2.25754   2.26006   2.26028   2.26434   2.26767
 Alpha virt. eigenvalues --    2.26851   2.26967   2.27278   2.27337   2.27381
 Alpha virt. eigenvalues --    2.27882   2.28205   2.28367   2.28717   2.29155
 Alpha virt. eigenvalues --    2.29173   2.29316   2.29417   2.29521   2.30005
 Alpha virt. eigenvalues --    2.30028   2.30443   2.30606   2.30847   2.30984
 Alpha virt. eigenvalues --    2.31026   2.31287   2.31472   2.31549   2.31596
 Alpha virt. eigenvalues --    2.31766   2.31855   2.32438   2.32607   2.32610
 Alpha virt. eigenvalues --    2.32889   2.32931   2.33014   2.33280   2.33327
 Alpha virt. eigenvalues --    2.33415   2.33466   2.33499   2.33656   2.34026
 Alpha virt. eigenvalues --    2.34444   2.34818   2.35305   2.35475   2.35591
 Alpha virt. eigenvalues --    2.35833   2.36003   2.36472   2.36637   2.36890
 Alpha virt. eigenvalues --    2.37138   2.37413   2.37414   2.37708   2.38352
 Alpha virt. eigenvalues --    2.38631   2.38956   2.39231   2.39501   2.39730
 Alpha virt. eigenvalues --    2.39869   2.40177   2.40318   2.40832   2.40955
 Alpha virt. eigenvalues --    2.41738   2.41754   2.42032   2.42417   2.42422
 Alpha virt. eigenvalues --    2.42610   2.42634   2.43027   2.43373   2.43575
 Alpha virt. eigenvalues --    2.43931   2.43961   2.44091   2.44107   2.45204
 Alpha virt. eigenvalues --    2.45257   2.45395   2.45445   2.45480   2.45501
 Alpha virt. eigenvalues --    2.45684   2.45753   2.45893   2.46161   2.46649
 Alpha virt. eigenvalues --    2.46771   2.47224   2.47227   2.47490   2.47625
 Alpha virt. eigenvalues --    2.47745   2.47779   2.47907   2.48069   2.48220
 Alpha virt. eigenvalues --    2.48223   2.48463   2.48620   2.48927   2.49011
 Alpha virt. eigenvalues --    2.49102   2.49289   2.49414   2.49640   2.49716
 Alpha virt. eigenvalues --    2.49856   2.50036   2.50244   2.50304   2.50408
 Alpha virt. eigenvalues --    2.50869   2.50899   2.51053   2.51386   2.51736
 Alpha virt. eigenvalues --    2.51740   2.51773   2.52010   2.52344   2.52413
 Alpha virt. eigenvalues --    2.52505   2.52887   2.53234   2.53290   2.53305
 Alpha virt. eigenvalues --    2.53408   2.53453   2.53821   2.54355   2.54540
 Alpha virt. eigenvalues --    2.54569   2.54711   2.55245   2.55294   2.55936
 Alpha virt. eigenvalues --    2.56176   2.56560   2.56580   2.57003   2.57061
 Alpha virt. eigenvalues --    2.57124   2.57216   2.57227   2.57252   2.57670
 Alpha virt. eigenvalues --    2.57720   2.58009   2.58064   2.58434   2.58542
 Alpha virt. eigenvalues --    2.58598   2.58651   2.58667   2.58814   2.59058
 Alpha virt. eigenvalues --    2.59209   2.59327   2.59672   2.59765   2.59937
 Alpha virt. eigenvalues --    2.60274   2.60584   2.60678   2.60822   2.60932
 Alpha virt. eigenvalues --    2.61064   2.61282   2.61389   2.61632   2.61638
 Alpha virt. eigenvalues --    2.61860   2.62039   2.62212   2.62331   2.62348
 Alpha virt. eigenvalues --    2.62595   2.62825   2.62944   2.62991   2.63344
 Alpha virt. eigenvalues --    2.63510   2.63542   2.63903   2.64255   2.64284
 Alpha virt. eigenvalues --    2.64462   2.64688   2.64844   2.64858   2.64937
 Alpha virt. eigenvalues --    2.65164   2.65377   2.65529   2.65613   2.66264
 Alpha virt. eigenvalues --    2.66280   2.66354   2.66525   2.67021   2.67144
 Alpha virt. eigenvalues --    2.67631   2.67759   2.68092   2.68385   2.68594
 Alpha virt. eigenvalues --    2.68964   2.69138   2.69257   2.69461   2.69487
 Alpha virt. eigenvalues --    2.69706   2.70083   2.70465   2.70492   2.70781
 Alpha virt. eigenvalues --    2.70969   2.71097   2.71146   2.71375   2.71417
 Alpha virt. eigenvalues --    2.71677   2.72150   2.72384   2.72632   2.73076
 Alpha virt. eigenvalues --    2.73271   2.73579   2.73832   2.74061   2.74339
 Alpha virt. eigenvalues --    2.74421   2.74848   2.74986   2.76074   2.76265
 Alpha virt. eigenvalues --    2.76471   2.76485   2.76761   2.77079   2.77110
 Alpha virt. eigenvalues --    2.77452   2.77620   2.78127   2.78376   2.79121
 Alpha virt. eigenvalues --    2.79398   2.79514   2.79613   2.79642   2.80310
 Alpha virt. eigenvalues --    2.80679   2.81293   2.81412   2.82128   2.82236
 Alpha virt. eigenvalues --    2.83119   2.83354   2.83529   2.83623   2.83641
 Alpha virt. eigenvalues --    2.83950   2.84142   2.85032   2.85396   2.85621
 Alpha virt. eigenvalues --    2.85887   2.86184   2.86707   2.86763   2.87316
 Alpha virt. eigenvalues --    2.87451   2.87676   2.87805   2.88321   2.88388
 Alpha virt. eigenvalues --    2.90976   2.91228   2.91274   2.92076   2.92118
 Alpha virt. eigenvalues --    2.92135   2.92666   2.93040   2.93235   2.93391
 Alpha virt. eigenvalues --    2.93712   2.93718   2.93901   2.93945   2.94153
 Alpha virt. eigenvalues --    2.94493   2.94847   2.95212   2.95225   2.95401
 Alpha virt. eigenvalues --    2.96079   2.96253   2.96349   2.96432   2.96690
 Alpha virt. eigenvalues --    2.96780   2.96853   2.97048   2.97211   2.97522
 Alpha virt. eigenvalues --    2.97627   2.97859   2.98004   2.98386   2.98680
 Alpha virt. eigenvalues --    2.98739   2.98960   2.99216   2.99309   2.99469
 Alpha virt. eigenvalues --    2.99649   2.99656   2.99796   2.99947   3.00590
 Alpha virt. eigenvalues --    3.00607   3.00973   3.01136   3.01469   3.01550
 Alpha virt. eigenvalues --    3.02003   3.02116   3.02378   3.02411   3.02523
 Alpha virt. eigenvalues --    3.02529   3.02575   3.02594   3.02682   3.03473
 Alpha virt. eigenvalues --    3.03814   3.03930   3.04114   3.04423   3.04429
 Alpha virt. eigenvalues --    3.04555   3.04818   3.05212   3.05640   3.06127
 Alpha virt. eigenvalues --    3.06320   3.06352   3.07244   3.07363   3.07529
 Alpha virt. eigenvalues --    3.07700   3.07937   3.07985   3.08486   3.08624
 Alpha virt. eigenvalues --    3.09031   3.09373   3.09417   3.09560   3.09608
 Alpha virt. eigenvalues --    3.09842   3.09843   3.09984   3.10031   3.10114
 Alpha virt. eigenvalues --    3.10324   3.10329   3.10356   3.10433   3.10594
 Alpha virt. eigenvalues --    3.10608   3.10946   3.10947   3.11006   3.11116
 Alpha virt. eigenvalues --    3.11232   3.11241   3.11280   3.11327   3.11404
 Alpha virt. eigenvalues --    3.11409   3.11573   3.11602   3.11641   3.11832
 Alpha virt. eigenvalues --    3.12007   3.12120   3.12266   3.12340   3.12358
 Alpha virt. eigenvalues --    3.12570   3.12656   3.12772   3.12804   3.12880
 Alpha virt. eigenvalues --    3.12906   3.12987   3.13041   3.13151   3.13326
 Alpha virt. eigenvalues --    3.13458   3.13544   3.13842   3.14067   3.14085
 Alpha virt. eigenvalues --    3.14177   3.14453   3.14457   3.14561   3.14676
 Alpha virt. eigenvalues --    3.14950   3.15049   3.15481   3.15545   3.15687
 Alpha virt. eigenvalues --    3.15732   3.16007   3.16171   3.16302   3.16396
 Alpha virt. eigenvalues --    3.16460   3.16572   3.16603   3.16714   3.16721
 Alpha virt. eigenvalues --    3.16918   3.17179   3.17347   3.17496   3.17583
 Alpha virt. eigenvalues --    3.17615   3.17696   3.17780   3.17934   3.18100
 Alpha virt. eigenvalues --    3.18136   3.18333   3.18457   3.18805   3.19168
 Alpha virt. eigenvalues --    3.19275   3.19307   3.19404   3.19437   3.19573
 Alpha virt. eigenvalues --    3.19679   3.19769   3.19862   3.19905   3.20410
 Alpha virt. eigenvalues --    3.20482   3.20706   3.20811   3.20899   3.21106
 Alpha virt. eigenvalues --    3.21493   3.21602   3.21706   3.21763   3.21924
 Alpha virt. eigenvalues --    3.22108   3.22256   3.22356   3.22586   3.23139
 Alpha virt. eigenvalues --    3.23693   3.23736   3.24070   3.24212   3.24291
 Alpha virt. eigenvalues --    3.24494   3.24880   3.25039   3.25070   3.25205
 Alpha virt. eigenvalues --    3.25299   3.25449   3.26234   3.26580   3.26655
 Alpha virt. eigenvalues --    3.26674   3.26971   3.27077   3.27338   3.27409
 Alpha virt. eigenvalues --    3.27701   3.27848   3.27961   3.28177   3.28534
 Alpha virt. eigenvalues --    3.28602   3.28843   3.29261   3.29582   3.29704
 Alpha virt. eigenvalues --    3.29861   3.30298   3.30560   3.31315   3.31530
 Alpha virt. eigenvalues --    3.31735   3.32069   3.32523   3.32568   3.32715
 Alpha virt. eigenvalues --    3.32769   3.33531   3.33794   3.33859   3.34505
 Alpha virt. eigenvalues --    3.34559   3.35599   3.36156   3.36391   3.36906
 Alpha virt. eigenvalues --    3.37079   3.37160   3.37751   3.37805   3.38262
 Alpha virt. eigenvalues --    3.38792   3.39075   3.39356   3.39431   3.39638
 Alpha virt. eigenvalues --    3.39961   3.40025   3.40642   3.40659   3.40893
 Alpha virt. eigenvalues --    3.41366   3.41437   3.41527   3.41828   3.41970
 Alpha virt. eigenvalues --    3.42205   3.42323   3.42769   3.43064   3.43137
 Alpha virt. eigenvalues --    3.43273   3.43475   3.43488   3.43563   3.43877
 Alpha virt. eigenvalues --    3.44440   3.44818   3.45045   3.45092   3.45266
 Alpha virt. eigenvalues --    3.45298   3.45426   3.45555   3.45799   3.46335
 Alpha virt. eigenvalues --    3.46708   3.46893   3.46971   3.47115   3.47156
 Alpha virt. eigenvalues --    3.47556   3.47869   3.48120   3.48334   3.48878
 Alpha virt. eigenvalues --    3.49039   3.49163   3.49471   3.49482   3.50173
 Alpha virt. eigenvalues --    3.50175   3.50486   3.50519   3.50649   3.50669
 Alpha virt. eigenvalues --    3.51510   3.51520   3.52750   3.53016   3.53251
 Alpha virt. eigenvalues --    3.53311   3.53399   3.53417   3.53582   3.53626
 Alpha virt. eigenvalues --    3.53775   3.54205   3.54315   3.54324   3.54645
 Alpha virt. eigenvalues --    3.55060   3.55304   3.55552   3.55845   3.56271
 Alpha virt. eigenvalues --    3.57228   3.57381   3.57508   3.57577   3.58523
 Alpha virt. eigenvalues --    3.58558   3.58688   3.58764   3.60253   3.60870
 Alpha virt. eigenvalues --    3.60916   3.61312   3.61463   3.61563   3.65952
 Alpha virt. eigenvalues --    3.66351   3.70161   3.70553   3.70557   3.71405
 Alpha virt. eigenvalues --    3.73169   3.73388   3.73554   3.74185   3.75514
 Alpha virt. eigenvalues --    3.76191   3.77571   3.77873   3.77990   3.78677
 Alpha virt. eigenvalues --    3.79508   3.80704   3.80714   3.81716   3.81871
 Alpha virt. eigenvalues --    3.81962   3.82033   3.82566   3.82596   3.83003
 Alpha virt. eigenvalues --    3.83531   3.84560   3.85026   3.85151   3.85526
 Alpha virt. eigenvalues --    3.85550   3.85963   3.86191   3.86362   3.86814
 Alpha virt. eigenvalues --    3.87203   3.88281   3.89018   3.89384   3.89385
 Alpha virt. eigenvalues --    3.89616   3.89700   3.90082   3.90287   3.90595
 Alpha virt. eigenvalues --    3.90886   3.91025   3.91187   3.91695   3.92080
 Alpha virt. eigenvalues --    3.92155   3.92489   3.93354   3.93781   3.94194
 Alpha virt. eigenvalues --    3.95435   3.95630   3.98063   3.98179   3.99814
 Alpha virt. eigenvalues --    4.00300   4.01116   4.02041   4.04776   4.04963
 Alpha virt. eigenvalues --    4.06856   4.08043   4.08819   4.09166   4.10750
 Alpha virt. eigenvalues --    4.12934   4.13216   4.22424   4.23348   4.24045
 Alpha virt. eigenvalues --    4.25148   4.25332   4.26684   4.30686   4.38467
 Alpha virt. eigenvalues --    4.39525   4.41015   4.41598   4.48898   4.52584
 Alpha virt. eigenvalues --    4.55159   4.59108   4.59604   4.59738   4.61163
 Alpha virt. eigenvalues --    4.61814   4.62181   4.64450   4.64506   4.64857
 Alpha virt. eigenvalues --    4.65536   4.66281   4.66899   4.67496   4.68614
 Alpha virt. eigenvalues --    4.68931   4.69145   4.69212   4.70788   4.70817
 Alpha virt. eigenvalues --    4.70919   4.71600   4.72230   4.72555   4.72607
 Alpha virt. eigenvalues --    4.73209   4.73431   4.74406   4.74947   4.75696
 Alpha virt. eigenvalues --    4.75848   4.76581   4.76935   4.76999   4.77155
 Alpha virt. eigenvalues --    4.77639   4.77887   4.78238   4.78400   4.79822
 Alpha virt. eigenvalues --    4.79976   4.80170   4.80295   4.81672   4.82452
 Alpha virt. eigenvalues --    4.82582   4.82647   4.82687   4.82778   4.83060
 Alpha virt. eigenvalues --    4.83235   4.84423   4.84446   4.86906   4.87379
 Alpha virt. eigenvalues --    4.87540   4.87613   4.87736   4.88461   4.90075
 Alpha virt. eigenvalues --    4.90494   4.92178   4.92186   4.92424   4.92928
 Alpha virt. eigenvalues --    4.92999   4.93087   4.96018   4.96316   4.99048
 Alpha virt. eigenvalues --    4.99130   5.00149   5.00189  23.02328  23.13431
 Alpha virt. eigenvalues --   23.13452  23.16632  23.24164  23.24180  23.35213
 Alpha virt. eigenvalues --   23.35737  23.35854  23.38853  23.39197  23.41456
 Alpha virt. eigenvalues --   23.42042  23.49610  23.50008  23.51889  23.54436
 Alpha virt. eigenvalues --   23.54457  23.57378  23.57843  23.60574  23.61336
 Alpha virt. eigenvalues --   23.62160  23.62230  23.64919  23.65333  23.66026
 Alpha virt. eigenvalues --   23.68882  23.69176  23.70116  23.71701  23.71703
 Alpha virt. eigenvalues --   23.73375  23.73816  23.74006  23.77054  23.77865
 Alpha virt. eigenvalues --   23.78027  23.78969  23.79211  23.79238  23.79550
 Alpha virt. eigenvalues --   23.80856  23.81017  23.81867  23.82198  23.82748
 Alpha virt. eigenvalues --   23.83657  23.83657  23.84482  23.85072  23.85747
 Alpha virt. eigenvalues --   23.85758  23.85945  23.86211  23.86275  23.87810
 Alpha virt. eigenvalues --   23.87979  23.88300  23.89144  23.89150  23.89369
 Alpha virt. eigenvalues --   23.89534  23.89549  23.89866  23.89957  23.90221
 Alpha virt. eigenvalues --   23.90940  23.91266  23.91581  23.91875  23.92347
 Alpha virt. eigenvalues --   23.92481  23.92488  23.92533  23.92716  23.92816
[...]
   112  C   -0.001935   0.000000  -0.006834  -0.013162   0.000464  -0.001946
   113  C   -0.000087   0.000000   0.003348  -0.010127   0.005352  -0.000310
   114  C   -0.000253   0.000000   0.009258  -0.004350   0.012598  -0.000483
   115  C   -0.001311   0.000000   0.004670  -0.015337  -0.009926  -0.005350
   116  C   -0.002077   0.000000   0.015160   0.002656  -0.006259  -0.006131
   117  C   -0.037640   0.000000   0.011261   0.061486  -0.029853  -0.090479
   118  C   -0.040396   0.000000  -0.006709  -0.065821  -0.012999  -0.093199
   119  C   -0.040395   0.000000  -0.053669  -0.038694   0.012999  -0.093198
   120  C   -0.037640   0.000000   0.047618   0.040498   0.029855  -0.090479
   121  C   -0.002078   0.000000  -0.005294   0.014467   0.006281  -0.006131
   122  C   -0.001310   0.000000  -0.015633  -0.003610   0.009921  -0.005349
   123  C   -0.000246   0.000000  -0.008372   0.005833  -0.012612  -0.000477
   124  C   -0.000095   0.000000  -0.010474  -0.002166  -0.005370  -0.000318
   125  C   -0.001932   0.000000  -0.007968  -0.012498  -0.000451  -0.001943
   126  C   -0.001767   0.000000  -0.013074   0.002445   0.007124  -0.001780
   127  C   -0.001165   0.000000  -0.010968  -0.009265  -0.003483  -0.001165
   128  C   -0.000910   0.000000  -0.007080  -0.011655   0.003191  -0.000911
   129  C   -0.000657   0.000000   0.000255  -0.012920  -0.004177  -0.000657
   130  C   -0.000933   0.000000  -0.007351  -0.011152   0.000162  -0.000933
   131  C   -0.000977   0.000000   0.004194  -0.012498   0.000439  -0.000977
   132  C   -0.000983   0.000000   0.000881  -0.013035   0.005499  -0.000983
   133  C   -0.001496   0.000000   0.006815  -0.011559  -0.004591  -0.001496
   134  C   -0.001511   0.000000   0.008466  -0.010682   0.001542  -0.001511
   135  C   -0.001192   0.000000   0.014393   0.002427  -0.001874  -0.001204
   136  C   -0.001602   0.000000   0.005129  -0.013219   0.001838  -0.001615
   137  C   -0.039147   0.000000  -0.000725  -0.058481   0.020364  -0.092140
   138  C   -0.038408   0.000000  -0.007361   0.051457   0.032840  -0.091296
   139  C   -0.001723   0.000000  -0.024254   0.015000  -0.010141  -0.005784
   140  C   -0.000914   0.000000  -0.000248  -0.028531   0.005202  -0.005092
   141  C    0.000335   0.000000  -0.003579  -0.011253  -0.007121   0.000278
   142  C   -0.001055   0.000000  -0.009851  -0.004116  -0.000044  -0.001228
   143  C   -0.000821   0.000000   0.001033  -0.012724   0.001503  -0.000822
   144  C   -0.001173   0.000000  -0.004907  -0.011294   0.007677  -0.001175
   145  C   -0.001110   0.000000   0.001629  -0.013309  -0.004778  -0.001110
   146  C   -0.000861   0.000000   0.003997  -0.012951   0.000669  -0.000861
   147  C   -0.000987   0.000000   0.011913  -0.006596  -0.001686  -0.000987
   148  C   -0.000971   0.000000   0.003955  -0.012984   0.002069  -0.000971
   149  C   -0.000893   0.000000   0.011845  -0.006818  -0.001590  -0.000893
   150  C   -0.001128   0.000000   0.012841  -0.004276   0.004541  -0.001128
   151  C   -0.003040   0.000000   0.011413  -0.016650   0.002701  -0.010051
   152  C   -0.039067   0.000000  -0.017576   0.001679   0.034483  -0.088908
   153  C   -0.000597   0.000000  -0.005624  -0.008622  -0.007511  -0.000824
   154  C   -0.000314   0.000000   0.002566  -0.012536   0.002251  -0.000665
   155  C   -0.001658   0.000000   0.012027  -0.007530  -0.001092  -0.001670
   156  C   -0.001217   0.000000  -0.005446  -0.013421   0.002065  -0.001229
   157  C   -0.001577   0.000000   0.008140  -0.011044  -0.002053  -0.001578
   158  C   -0.001541   0.000000   0.010345  -0.008664   0.004320  -0.001542
   159  C   -0.000985   0.000000   0.012676  -0.003184  -0.005563  -0.000985
   160  C   -0.000937   0.000000   0.011186  -0.007159  -0.000321  -0.000937
   161  C   -0.040389   0.000000   0.064797  -0.006164   0.013999  -0.093194
   162  C   -0.037683   0.000000  -0.061346   0.001006   0.030088  -0.090520
   163  C   -0.001984   0.000000  -0.007425  -0.014906   0.006162  -0.006048
   164  C   -0.001252   0.000000   0.015624  -0.006950   0.009523  -0.005300
   165  C   -0.000255   0.000000   0.002157  -0.009759  -0.012679  -0.000485
   166  C   -0.000012   0.000000   0.008946  -0.005374  -0.005938  -0.000236
   167  C   -0.001990   0.000000   0.014119   0.003144  -0.000451  -0.002001
   168  C   -0.001849   0.000000   0.008355  -0.009904   0.007723  -0.001862
   169  C   -0.039077   0.000000   0.039150   0.041998   0.021190  -0.092054
   170  C   -0.038502   0.000000  -0.028419  -0.041868   0.033424  -0.091391
   171  C   -0.001579   0.000000   0.007129  -0.029108  -0.011172  -0.005650
   172  C   -0.000974   0.000000   0.019702   0.022162   0.004295  -0.005151
   173  H    0.041992   0.000000  -0.015601   0.040397  -0.135783   0.100439
   174  H    0.047254   0.000000  -0.051085   0.022900  -0.139314   0.103389
   175  H    0.045848   0.000000   0.081022  -0.004033  -0.124152   0.102939
   176  H    0.042164   0.000000  -0.042135  -0.010252  -0.135786   0.100569
   177  H    0.045293   0.000000  -0.028537  -0.035160  -0.140175   0.102558
   178  H    0.046007   0.000000   0.011190   0.080866  -0.123751   0.103090
   179  H    0.047140   0.000000   0.024610  -0.049584  -0.139453   0.103290
   180  H    0.045505   0.000000  -0.055576   0.058515  -0.124082   0.102623
   181  H    0.042163   0.000000   0.012203  -0.041613   0.135787   0.100567
   182  H    0.042041   0.000000   0.038819  -0.019950  -0.135485   0.100488
   183  H    0.045846   0.000000  -0.044023   0.068130   0.124153   0.102938
   184  H    0.047253   0.000000   0.045374  -0.032791   0.139314   0.103387
   185  H    0.045392   0.000000   0.045802   0.005947  -0.139986   0.102644
   186  H    0.046112   0.000000  -0.062177  -0.053669  -0.123622   0.103177
   187  H    0.041994   0.000000   0.042781   0.006713   0.135783   0.100440
   188  H    0.047229   0.000000   0.014880   0.053091  -0.139598   0.103371
   189  H    0.045558   0.000000   0.003740  -0.081416  -0.123651   0.102663
   190  H    0.045559   0.000000  -0.072392  -0.037455   0.123649   0.102664
   191  H    0.047230   0.000000   0.038540   0.039429   0.139599   0.103373
   192  H    0.046114   0.000000  -0.015367  -0.080681   0.123624   0.103178
   193  H    0.045393   0.000000  -0.017757   0.042639   0.139985   0.102643
   194  H    0.042041   0.000000  -0.036698   0.023645   0.135484   0.100488
   195  H    0.045504   0.000000   0.078459  -0.018868   0.124085   0.102623
   196  H    0.047140   0.000000  -0.055242  -0.003472   0.139454   0.103290
   197  H    0.046008   0.000000   0.064480   0.050101   0.123742   0.103092
   198  H    0.045293   0.000000  -0.016175  -0.042298   0.140176   0.102557
       Tot  -0.000018   0.000000  -0.008948  -0.016216   0.000041  -0.000018
 Hirshfeld charges with hydrogens summed into heavy atoms:
              Q-H       Q-CM5   
     1  C   -0.000547  -0.000898
     2  C   -0.000660  -0.000887
     3  C    0.002419   0.010988
     4  C   -0.003108  -0.010128
     5  C   -0.001041  -0.001043
     6  C   -0.000785  -0.000786
     7  C   -0.000818  -0.000990
     8  C    0.000314   0.000257
     9  C   -0.001168  -0.005302
    10  C   -0.001832  -0.005880
    11  C    0.009836   0.013134
    12  C    0.005948   0.010132
    13  C   -0.000962  -0.000962
    14  C   -0.000736  -0.000736
    15  C   -0.000836  -0.000837
    16  C   -0.001194  -0.001194
    17  C   -0.001806  -0.001819
    18  C   -0.001798  -0.001809
    19  C   -0.000233  -0.000586
    20  C   -0.000701  -0.000933
    21  C    0.003145   0.011717
    22  C   -0.002879  -0.009882
    23  C   -0.001232  -0.001232
    24  C   -0.000927  -0.000927
    25  C   -0.000625  -0.000625
    26  C   -0.000994  -0.000994
    27  C   -0.000864  -0.000864
    28  C   -0.000882  -0.000882
    29  C   -0.001442  -0.001444
    30  C   -0.001015  -0.001015
    31  C   -0.000972  -0.001145
    32  C    0.000284   0.000227
    33  C   -0.000960  -0.005137
    34  C   -0.001567  -0.005638
    35  C    0.006798   0.011173
    36  C    0.006936   0.011042
    37  C    0.000293   0.000236
    38  C   -0.000969  -0.001142
    39  C   -0.001014  -0.001015
    40  C   -0.001437  -0.001439
    41  C   -0.000892  -0.000892
    42  C   -0.000866  -0.000866
    43  C   -0.000996  -0.000996
    44  C   -0.000641  -0.000641
    45  C   -0.000921  -0.000922
    46  C   -0.001236  -0.001236
    47  C   -0.001840  -0.001853
    48  C   -0.001992  -0.002003
    49  C   -0.000005  -0.000228
    50  C   -0.000249  -0.000479
    51  C   -0.001253  -0.005302
    52  C   -0.001985  -0.006049
    53  C    0.009456   0.012769
    54  C    0.005115   0.009428
    55  C   -0.002885  -0.009889
    56  C    0.003141   0.011713
    57  C   -0.000712  -0.000943
    58  C   -0.000238  -0.000591
    59  C   -0.001799  -0.001810
    60  C   -0.001806  -0.001819
    61  C   -0.001196  -0.001196
    62  C   -0.000835  -0.000835
    63  C   -0.000738  -0.000738
    64  C   -0.000958  -0.000958
    65  C   -0.000936  -0.000936
    66  C   -0.000988  -0.000988
    67  C   -0.001543  -0.001543
    68  C   -0.001569  -0.001570
    69  C   -0.001211  -0.001224
    70  C   -0.001648  -0.001660
    71  C   -0.000308  -0.000659
    72  C   -0.000595  -0.000822
    73  C    0.002985   0.011591
    74  C   -0.003040  -0.010051
    75  C    0.005950   0.010135
    76  C    0.009837   0.013135
    77  C   -0.001813  -0.005862
    78  C   -0.001159  -0.005293
    79  C    0.000309   0.000252
    80  C   -0.000819  -0.000991
    81  C   -0.000779  -0.000780
    82  C   -0.001043  -0.001045
    83  C   -0.001128  -0.001129
    84  C   -0.000883  -0.000883
    85  C   -0.000976  -0.000976
    86  C   -0.000973  -0.000973
    87  C   -0.000872  -0.000872
    88  C   -0.001109  -0.001109
    89  C   -0.001190  -0.001192
    90  C   -0.000823  -0.000824
    91  C   -0.001055  -0.001228
    92  C    0.000334   0.000277
    93  C   -0.000913  -0.005091
    94  C   -0.001714  -0.005775
    95  C    0.006979   0.011342
    96  C    0.006965   0.011035
    97  C   -0.003099  -0.010119
    98  C    0.002433   0.011001
    99  C   -0.000646  -0.000872
   100  C   -0.000538  -0.000889
   101  C   -0.001607  -0.001620
   102  C   -0.001186  -0.001199
   103  C   -0.001512  -0.001513
   104  C   -0.001507  -0.001507
   105  C   -0.000986  -0.000986
   106  C   -0.000987  -0.000987
   107  C   -0.000927  -0.000927
   108  C   -0.000660  -0.000660
   109  C   -0.000901  -0.000901
   110  C   -0.001171  -0.001171
   111  C   -0.001773  -0.001785
   112  C   -0.001935  -0.001946
   113  C   -0.000087  -0.000310
   114  C   -0.000253  -0.000483
   115  C   -0.001311  -0.005350
   116  C   -0.002077  -0.006131
   117  C    0.009589   0.012892
   118  C    0.005161   0.009464
   119  C    0.005164   0.009466
   120  C    0.009590   0.012894
   121  C   -0.002078  -0.006131
   122  C   -0.001310  -0.005349
   123  C   -0.000246  -0.000477
   124  C   -0.000095  -0.000318
   125  C   -0.001932  -0.001943
   126  C   -0.001767  -0.001780
   127  C   -0.001165  -0.001165
   128  C   -0.000910  -0.000911
   129  C   -0.000657  -0.000657
   130  C   -0.000933  -0.000933
   131  C   -0.000977  -0.000977
   132  C   -0.000983  -0.000983
   133  C   -0.001496  -0.001496
   134  C   -0.001511  -0.001511
   135  C   -0.001192  -0.001204
   136  C   -0.001602  -0.001615
   137  C    0.006967   0.011038
   138  C    0.006985   0.011348
   139  C   -0.001723  -0.005784
   140  C   -0.000914  -0.005092
   141  C    0.000335   0.000278
   142  C   -0.001055  -0.001228
   143  C   -0.000821  -0.000822
   144  C   -0.001173  -0.001175
   145  C   -0.001110  -0.001110
   146  C   -0.000861  -0.000861
   147  C   -0.000987  -0.000987
   148  C   -0.000971  -0.000971
   149  C   -0.000893  -0.000893
   150  C   -0.001128  -0.001128
   151  C   -0.003040  -0.010051
   152  C    0.002973   0.011580
   153  C   -0.000597  -0.000824
   154  C   -0.000314  -0.000665
   155  C   -0.001658  -0.001670
   156  C   -0.001217  -0.001229
   157  C   -0.001577  -0.001578
   158  C   -0.001541  -0.001542
   159  C   -0.000985  -0.000985
   160  C   -0.000937  -0.000937
   161  C    0.005115   0.009429
   162  C    0.009457   0.012770
   163  C   -0.001984  -0.006048
   164  C   -0.001252  -0.005300
   165  C   -0.000255  -0.000485
   166  C   -0.000012  -0.000236
   167  C   -0.001990  -0.002001
   168  C   -0.001849  -0.001862
   169  C    0.006931   0.011038
   170  C    0.006791   0.011166
   171  C   -0.001579  -0.005650
   172  C   -0.000974  -0.005151
 
 EQQ=  0.00000000000     EQD=  0.00000000000     EDD= 0.295097817838E-01
 EQQ+QD+DD= 0.295097817838E-01
 
 1\1\GINC-CU13\SP\RB3LYP\6-311G(d)\C172H26\WANG\09-Jul-2025\0\\# B3LYP/
 6-311G* Pop=Hirshfeld NOSYMM\\From ../../cnt_8_5-1_opt.out\\0,1\C,0,4.
 437195,0.331476,2.420584\C,0,4.328313,-1.082625,2.601295\C,0,3.928709,
 2.203043,0.9353\C,0,4.37782,0.886433,1.105534\C,0,4.410941,0.657172,4.
 86395\C,0,4.40203,-0.753104,5.051843\C,0,3.714065,2.482079,3.345817\C,
 0,4.283198,1.191799,3.539647\C,0,2.328247,3.893801,1.846038\C,0,3.4123
 13,2.940801,2.01887\C,0,0.488863,4.573773,0.388873\C,0,1.8098,4.255632
 ,0.560419\C,0,4.3783,0.975448,7.306506\C,0,4.465423,-0.433869,7.494323
 \C,0,3.541616,2.746169,5.803211\C,0,4.219893,1.50253,5.989731\C,0,2.03
 381,3.980939,4.303183\C,0,3.171794,3.15523,4.485062\C,0,0.142581,4.488
 431,2.805081\C,0,1.535865,4.210345,2.977801\C,0,-1.784802,4.212293,1.3
 26384\C,0,-0.421261,4.511848,1.494586\C,0,4.303736,1.289495,9.754354\C
 ,0,4.497866,-0.115438,9.942335\C,0,3.340749,2.988807,8.251087\C,0,4.10
 8262,1.804597,8.436441\C,0,1.747977,4.126602,6.747593\C,0,2.947896,3.3
 77028,6.93088\C,0,-0.177138,4.475791,5.249454\C,0,1.226785,4.305067,5.
 431231\C,0,-2.071254,3.999286,3.732338\C,0,-0.726232,4.419561,3.92678\
 C,0,-3.634401,2.788646,2.227933\C,0,-2.566799,3.768481,2.40513\C,0,-4.
 502511,1.039653,0.765558\C,0,-4.060982,2.328838,0.94993\C,0,4.191029,1
 .5809,12.201316\C,0,4.499626,0.205927,12.39572\C,0,3.115222,3.214987,1
 0.696919\C,0,3.965125,2.084556,10.87866\C,0,1.450755,4.241263,9.197275
 \C,0,2.699986,3.577051,9.380559\C,0,-0.491217,4.459748,7.691676\C,0,0.
 918119,4.387344,7.877048\C,0,-2.348779,3.83716,6.185722\C,0,-1.035016,
 4.371495,6.373744\C,0,-3.74041,2.47785,4.679692\C,0,-2.798066,3.522502
 ,4.868002\C,0,-4.431537,0.652657,3.159479\C,0,-4.018481,2.012027,3.348
 96\C,0,-4.297792,-1.304874,1.657011\C,0,-4.515027,0.108467,1.845757\C,
 0,-3.359594,-3.018394,0.189326\C,0,-4.132671,-1.903575,0.362824\C,0,4.
 118483,1.891035,14.633532\C,0,4.540949,0.560424,14.801677\C,0,2.878548
 ,3.435095,13.150385\C,0,3.816232,2.36767,13.323056\C,0,1.146656,4.3239
 76,11.643102\C,0,2.430851,3.751578,11.824995\C,0,-0.808628,4.405359,10
 .138391\C,0,0.607517,4.439748,10.324941\C,0,-2.608455,3.650027,8.63373
 8\C,0,-1.344285,4.279062,8.8216\C,0,-3.916518,2.202174,7.121732\C,0,-3
 .039192,3.309851,7.311163\C,0,-4.46604,0.329609,5.61562\C,0,-4.151078,
 1.710741,5.803989\C,0,-4.148025,-1.585741,4.108485\C,0,-4.45247,-0.215
 57,4.295747\C,0,-3.068473,-3.215477,2.610016\C,0,-3.921788,-2.080896,2
 .785682\C,0,-1.449031,-4.296049,1.133306\C,0,-2.655949,-3.598169,1.298
 194\C,0,2.780543,3.694664,15.567792\C,0,3.716792,2.710025,15.739296\C,
 0,0.840612,4.424899,14.109297\C,0,2.207969,3.96272,14.282161\C,0,-1.10
 9452,4.304786,12.588459\C,0,0.292522,4.456922,12.782331\C,0,-2.853266,
 3.435478,11.076201\C,0,-1.636332,4.14821,11.264141\C,0,-4.066264,1.907
 306,9.569771\C,0,-3.263645,3.074954,9.758926\C,0,-4.487612,0.0069,8.05
 9041\C,0,-4.266984,1.399343,8.24871\C,0,-4.047867,-1.898983,6.552367\C
 ,0,-4.447297,-0.539281,6.738222\C,0,-2.836781,-3.433999,5.054969\C,0,-
 3.767157,-2.372049,5.237685\C,0,-1.106721,-4.348888,3.542378\C,0,-2.38
 5602,-3.754972,3.732585\C,0,0.868549,-4.508418,2.045882\C,0,-0.579344,
 -4.507774,2.217811\C,0,2.691918,-3.805332,0.586176\C,0,1.499265,-4.462
 879,0.769064\C,0,-1.421347,4.234081,15.02254\C,0,-0.056564,4.503352,15
 .192829\C,0,-3.10192,3.206933,13.526724\C,0,-1.931597,4.008052,13.7074
 79\C,0,-4.185409,1.603448,12.012382\C,0,-3.467924,2.809384,12.20258\C,
 0,-4.485872,-0.322508,10.50359\C,0,-4.359687,1.087744,10.691469\C,0,-3
 .9163,-2.189388,9.001548\C,0,-4.408755,-0.863818,9.18706\C,0,-2.604144
 ,-3.641298,7.497366\C,0,-3.608025,-2.648461,7.680912\C,0,-0.800271,-4.
 417294,5.998389\C,0,-2.134653,-3.935703,6.182382\C,0,1.147668,-4.34386
 1,4.497721\C,0,-0.251962,-4.485187,4.681761\C,0,2.890162,-3.459379,2.9
 80524\C,0,1.67161,-4.190274,3.168791\C,0,4.097071,-1.917597,1.474984\C
 ,0,3.319618,-3.114771,1.66632\C,0,4.529406,-0.018435,-0.000163\C,0,4.3
 74192,-1.364619,0.178294\C,0,-3.369306,3.105914,15.949716\C,0,-2.28089
 9,3.913197,16.128198\C,0,-4.357813,1.317575,14.461705\C,0,-3.709662,2.
 589433,14.653034\C,0,-4.464979,-0.647471,12.959294\C,0,-4.44148,0.7733
 ,13.147509\C,0,-3.758498,-2.460777,11.446357\C,0,-4.336006,-1.178023,1
 1.630381\C,0,-2.341209,-3.816481,9.945757\C,0,-3.425553,-2.901713,10.1
 29734\C,0,-0.48969,-4.448779,8.447225\C,0,-1.851511,-4.075926,8.630774
 \C,0,1.456212,-4.249714,6.941027\C,0,0.062018,-4.486157,7.126577\C,0,3
 .12175,-3.231441,5.43656\C,0,1.963533,-4.045851,5.624483\C,0,4.167006,
 -1.598396,3.925446\C,0,3.481158,-2.822619,4.115642\C,0,-4.614863,-0.93
 295,15.359041\C,0,-4.641922,0.428686,15.541878\C,0,-3.614371,-2.755518
 ,13.910312\C,0,-4.33891,-1.501935,14.082228\C,0,-2.059192,-3.943289,12
 .395568\C,0,-3.213045,-3.132812,12.585754\C,0,-0.170728,-4.448197,10.8
 90459\C,0,-1.555599,-4.173509,11.073194\C,0,1.756558,-4.120856,9.38987
 \C,0,0.379293,-4.454763,9.575764\C,0,3.345395,-2.995495,7.879349\C,0,2
 .249714,-3.882688,8.069037\C,0,4.294928,-1.28877,6.369121\C,0,3.684884
 ,-2.56764,6.55827\C,0,-1.788173,-4.098856,14.829963\C,0,-2.996122,-3.4
 02745,14.994833\C,0,0.158756,-4.436406,13.342467\C,0,-1.25047,-4.26475
 8,13.518145\C,0,2.039506,-3.963426,11.832361\C,0,0.700685,-4.384816,12
 .019646\C,0,3.557039,-2.739315,10.324071\C,0,2.518396,-3.702572,10.512
 468\C,0,4.386116,-0.976979,8.816883\C,0,3.86537,-2.290511,9.006317\C,0
 ,0.41779,-4.530243,15.76533\C,0,-0.934216,-4.41821,15.938837\C,0,2.351
 436,-3.855444,14.28235\C,0,1.01883,-4.373953,14.471134\C,0,3.751835,-2
 .473913,12.779075\C,0,2.78097,-3.511154,12.968603\C,0,4.450013,-0.6618
 87,11.260038\C,0,4.016277,-2.000239,11.448338\C,0,4.047784,-2.352489,1
 5.178067\C,0,3.151794,-3.379207,15.362498\C,0,4.547613,-0.338674,13.72
 2894\C,0,4.232674,-1.753149,13.900069\H,0,3.771473,2.551878,-0.080323\
 H,0,0.096541,4.750773,-0.609465\H,0,2.452672,4.192945,-0.312095\H,0,-2
 .150774,4.10251,0.3104\H,0,-4.714695,0.701916,-0.243524\H,0,-3.943164,
 2.968433,0.080586\H,0,-3.172009,-3.400856,-0.810942\H,0,-4.556437,-1.4
 16174,-0.509566\H,0,4.628893,0.188589,15.817663\H,0,-1.097029,-4.45482
 5,0.118893\H,0,2.404653,4.2199,16.440333\H,0,4.066247,2.458768,16.7376
 33\H,0,3.082209,-3.704465,-0.421222\H,0,0.986763,-4.865736,-0.099156\H
 ,0,0.324094,4.541795,16.208471\H,0,4.645349,0.389153,-1.001376\H,0,4.3
 7504,-2.014923,-0.690815\H,0,-3.933013,2.781635,16.818811\H,0,-1.98587
 3,4.217375,17.129414\H,0,-4.707342,-1.578223,16.227285\H,0,-4.749772,0
 .817135,16.549268\H,0,-3.30967,-3.177254,16.009222\H,0,1.051763,-4.653
 493,16.637726\H,0,-1.359211,-4.446954,16.939112\H,0,4.543045,-1.930839
 ,16.047347\H,0,2.965424,-3.731842,16.371582\\Version=ES64L-G16RevB.01\
 HF=-6572.0324416\RMSD=7.975e-09\Dipole=-0.0237584,-0.0411142,0.000066\
 Quadrupole=-54.4745433,-55.3517333,109.8262766,-0.7610681,0.8526746,-1
 .3270532\PG=C01 [X(C172H26)]\\@


  ON THE CHOICE OF THE CORRECT LANGUAGE -
 I SPEAK SPANISH TO GOD, ITALIAN TO WOMEN,
 FRENCH TO MEN, AND GERMAN TO MY HORSE.
          -- CHARLES V
 Job cpu time:       0 days 16 hours 32 minutes 56.9 seconds.
 Elapsed time:       0 days  0 hours 35 minutes 40.1 seconds.
 File lengths (MBytes):  RWF=   5394 Int=      0 D2E=      0 Chk=    579 Scr=      1
 Normal termination of Gaussian 16 at Wed Jul  9 01:35:58 2025.
