 Entering Gaussian System, Link 0=g16
 Initial command:
 /opt/software/g16/l1.exe "/tmp/cnt_7_7-2_sgp-34108.tmp/Gau-35306.inp" -scrdir="/tmp/cnt_7_7-2_sgp-34108.tmp/"
 Entering Link 1 = /opt/software/g16/l1.exe PID=     35307.
  
 Copyright (c) 1988-2017, Gaussian, Inc.  All Rights Reserved.
  
 This is part of the Gaussian(R) 16 program.  It is based on
 the Gaussian(R) 09 system (copyright 2009, Gaussian, Inc.),
 the Gaussian(R) 03 system (copyright 2003, Gaussian, Inc.),
 the Gaussian(R) 98 system (copyright 1998, Gaussian, Inc.),
 the Gaussian(R) 94 system (copyright 1995, Gaussian, Inc.),
 the Gaussian 92(TM) system (copyright 1992, Gaussian, Inc.),
 the Gaussian 90(TM) system (copyright 1990, Gaussian, Inc.),
 the Gaussian 88(TM) system (copyright 1988, Gaussian, Inc.),
 the Gaussian 86(TM) system (copyright 1986, Carnegie Mellon
 University), and the Gaussian 82(TM) system (copyright 1983,
 Carnegie Mellon University). Gaussian is a federally registered
 trademark of Gaussian, Inc.
  
 This software contains proprietary and confidential information,
 including trade secrets, belonging to Gaussian, Inc.
  
 This software is provided under written license and may be
 used, copied, transmitted, or stored only in accord with that
 written license.
  
 The following legend is applicable only to US Government
 contracts under FAR:
  
                    RESTRICTED RIGHTS LEGEND
  
 Use, reproduction and disclosure by the US Government is
 subject to restrictions as set forth in subparagraphs (a)
 and (c) of the Commercial Computer Software - Restricted
 Rights clause in FAR 52.227-19.
  
 Gaussian, Inc.
 340 Quinnipiac St., Bldg. 40, Wallingford CT 06492
  
  
 ---------------------------------------------------------------
 Warning -- This program may not be used in any manner that
 competes with the business of Gaussian, Inc. or will provide
 assistance to any competitor of Gaussian, Inc.  The licensee
 of this program is prohibited from giving any competitor of
 Gaussian, Inc. access to this program.  By using this program,
 the user acknowledges that Gaussian, Inc. is engaged in the
 business of creating and licensing software in the field of
 computational chemistry and represents and warrants to the
 licensee that it is not a competitor of Gaussian, Inc. and that
 it will not use this program in any manner prohibited above.
 ---------------------------------------------------------------
  

 Cite this work as:
 Gaussian 16, Revision B.01,
 M. J. Frisch, G. W. Trucks, H. B. Schlegel, G. E. Scuseria, 
 M. A. Robb, J. R. Cheeseman, G. Scalmani, V. Barone, 
 G. A. Petersson, H. Nakatsuji, X. Li, M. Caricato, A. V. Marenich, 
 J. Bloino, B. G. Janesko, R. Gomperts, B. Mennucci, H. P. Hratchian, 
 J. V. Ortiz, A. F. Izmaylov, J. L. Sonnenberg, D. Williams-Young, 
 F. Ding, F. Lipparini, F. Egidi, J. Goings, B. Peng, A. Petrone, 
 T. Henderson, D. Ranasinghe, V. G. Zakrzewski, J. Gao, N. Rega, 
 G. Zheng, W. Liang, M. Hada, M. Ehara, K. Toyota, R. Fukuda, 
 J. Hasegawa, M. Ishida, T. Nakajima, Y. Honda, O. Kitao, H. Nakai, 
 T. Vreven, K. Throssell, J. A. Montgomery, Jr., J. E. Peralta, 
 F. Ogliaro, M. J. Bearpark, J. J. Heyd, E. N. Brothers, K. N. Kudin, 
 V. N. Staroverov, T. A. Keith, R. Kobayashi, J. Normand, 
 K. Raghavachari, A. P. Rendell, J. C. Burant, S. S. Iyengar, 
 J. Tomasi, M. Cossi, J. M. Millam, M. Klene, C. Adamo, R. Cammi, 
 J. W. Ochterski, R. L. Martin, K. Morokuma, O. Farkas, 
 J. B. Foresman, and D. J. Fox, Gaussian, Inc., Wallingford CT, 2016.
 
 ******************************************
 Gaussian 16:  ES64L-G16RevB.01 20-Dec-2017
                 8-Jul-2025 
 ******************************************
 %nproc=18
 Will use up to   18 processors via shared memory.
 ------------------------------------
 # B3LYP/6-311G* Pop=Hirshfeld NOSYMM
 ------------------------------------
 1/38=1,172=1/1;
 2/12=2,15=1,17=6,18=5,40=1/2;
 3/5=4,6=6,7=1,11=2,25=1,30=1,74=-5/1,2,3;
 4//1;
 5/5=2,38=5/2;
 6/7=2,8=2,9=2,10=2,28=1,79=1/1;
 99/5=1,9=1/99;
 ----------------------------
 From ../../cnt_7_7-2_opt.out
 ----------------------------
 Symbolic Z-matrix:
 Charge =  0 Multiplicity = 1
 6                     4.34811   2.09953   1.23216 
 6                     4.77505   0.71498   1.23214 
 6                     4.41221   2.07632   3.6663 
 6                     4.81495   0.77023   3.66628 
 6                     3.07469   3.7854    0.02298 
 6                     4.00417   2.78333   0.02296 
 6                     3.00694   3.77851   2.45711 
 6                     3.99222   2.71623   2.4571 
 6                     1.06989   4.70889   1.2322 
 6                     2.41866   4.17969   1.23219 
 6                     1.12797   4.74448   3.66633 
 6                     2.40031   4.24528   3.66632 
 6                    -1.04214   4.76377   0.02297 
 6                     0.32079   4.86615   0.02299 
 6                    -1.07901   4.70644   2.45711 
 6                     0.36579   4.81489   2.45713 
 6                    -3.01411   3.77205   1.23217 
 6                    -1.75937   4.49652   1.23217 
 6                    -3.00587   3.83984   3.6663 
 6                    -1.8222    4.52324   3.66629 
 6                    -4.37397   2.15511   0.02299 
 6                    -3.60413   3.28445   0.02297 
 6                    -4.35217   2.09059   2.45712 
 6                    -3.53611   3.28778   2.45711 
 6                    -4.82817  -0.00494   1.2322 
 6                    -4.61225   1.42774   1.2322 
 6                    -4.87588   0.04376   3.66633 
 6                    -4.67219   1.39528   3.66633 
 6                    -4.4122   -2.07632   0.02297 
 6                    -4.81495  -0.77023   0.02299 
 6                    -4.34811  -2.09953   2.45711 
 6                    -4.77505  -0.71498   2.45713 
 6                    -3.00694  -3.77851   1.23216 
 6                    -3.99222  -2.71623   1.23217 
 6                    -3.07469  -3.7854    3.66629 
 6                    -4.00417  -2.78333   3.66631 
 6                    -1.12796  -4.74448   0.02293 
 6                    -2.40031  -4.24528   0.02295 
 6                    -1.06989  -4.70889   2.45707 
 6                    -2.41866  -4.17969   2.45708 
 6                     1.07901  -4.70644   1.23216 
 6                    -0.36578  -4.81489   1.23214 
 6                     1.04214  -4.76377   3.6663 
 6                    -0.32079  -4.86615   3.66628 
 6                     3.00587  -3.83984   0.02297 
 6                     1.8222   -4.52324   0.02298 
 6                     3.01411  -3.77205   2.4571 
 6                     1.75938  -4.49652   2.4571 
 6                     4.35217  -2.09059   1.23214 
 6                     3.53611  -3.28778   1.23216 
 6                     4.37397  -2.15511   3.66628 
 6                     3.60414  -3.28444   3.6663 
 6                     4.87588  -0.04376   0.02294 
 6                     4.67219  -1.39528   0.02294 
 6                     4.82817   0.00494   2.45707 
 6                     4.61225  -1.42774   2.45707 
 1                     4.31712   2.59438   4.61453 
 1                     5.02808   0.28853   4.61451 
 1                     2.76425   4.21094  -0.92525 
 1                     4.40518   2.44184  -0.92528 
 1                     0.66356   4.99301   4.61457 
 1                     2.90983   4.11172   4.61455 
 1                    -1.56838   4.78624  -0.92526 
 1                     0.8378    4.96692  -0.92524 
 1                    -3.48982   3.63185   4.61451 
 1                    -1.40016   4.83841   4.61451 
 1                    -4.71965   1.75766  -0.92523 
 1                    -3.36054   3.75143  -0.92527 
 1                    -5.01495  -0.46426   4.61456 
 1                    -4.65529   1.92173   4.61456 
 1                    -4.31712  -2.59438  -0.92526 
 1                    -5.02808  -0.28853  -0.92524 
 1                    -2.76425  -4.21094   4.61451 
 1                    -4.40518  -2.44184   4.61454 
 1                    -0.66355  -4.99301  -0.9253 
 1                    -2.90982  -4.11172  -0.92528 
 1                     1.56838  -4.78624   4.61453 
 1                    -0.8378   -4.96692   4.6145 
 1                     3.48982  -3.63185  -0.92525 
 1                     1.40016  -4.83841  -0.92525 
 1                     4.71965  -1.75766   4.6145 
 1                     3.36054  -3.75143   4.61454 
 1                     5.01496   0.46426  -0.9253 
 1                     4.65529  -1.92173  -0.9253 
 
 Symmetry turned off by external request.
 Stoichiometry    C56H28
 Framework group  CI[X(C56H28)]
 Deg. of freedom   123
 Full point group                 CI      NOp   2
                          Input orientation:                          
 ---------------------------------------------------------------------
 Center     Atomic      Atomic             Coordinates (Angstroms)
 Number     Number       Type             X           Y           Z
 ---------------------------------------------------------------------
      1          6           0        4.348112    2.099528    1.232160
      2          6           0        4.775051    0.714981    1.232141
      3          6           0        4.412206    2.076318    3.666296
      4          6           0        4.814950    0.770227    3.666280
      5          6           0        3.074693    3.785402    0.022975
      6          6           0        4.004167    2.783333    0.022962
      7          6           0        3.006943    3.778513    2.457111
      8          6           0        3.992218    2.716226    2.457099
      9          6           0        1.069891    4.708894    1.232200
     10          6           0        2.418657    4.179686    1.232189
     11          6           0        1.127965    4.744480    3.666334
     12          6           0        2.400308    4.245277    3.666323
     13          6           0       -1.042139    4.763770    0.022968
     14          6           0        0.320794    4.866147    0.022992
     15          6           0       -1.079013    4.706440    2.457108
     16          6           0        0.365785    4.814888    2.457126
     17          6           0       -3.014114    3.772050    1.232171
     18          6           0       -1.759374    4.496524    1.232169
     19          6           0       -3.005868    3.839841    3.666295
     20          6           0       -1.822202    4.523241    3.666290
     21          6           0       -4.373970    2.155107    0.022989
     22          6           0       -3.604133    3.284445    0.022970
     23          6           0       -4.352169    2.090586    2.457124
     24          6           0       -3.536111    3.287778    2.457108
     25          6           0       -4.828167   -0.004936    1.232196
     26          6           0       -4.612247    1.427744    1.232197
     27          6           0       -4.875879    0.043763    3.666331
     28          6           0       -4.672188    1.395276    3.666330
     29          6           0       -4.412204   -2.076318    0.022972
     30          6           0       -4.814949   -0.770227    0.022988
     31          6           0       -4.348111   -2.099528    2.457108
     32          6           0       -4.775050   -0.714981    2.457127
     33          6           0       -3.006942   -3.778513    1.232157
     34          6           0       -3.992217   -2.716226    1.232169
     35          6           0       -3.074692   -3.785402    3.666293
     36          6           0       -4.004166   -2.783333    3.666306
     37          6           0       -1.127964   -4.744480    0.022934
     38          6           0       -2.400306   -4.245277    0.022946
     39          6           0       -1.069890   -4.708894    2.457068
     40          6           0       -2.418655   -4.179686    2.457079
     41          6           0        1.079014   -4.706440    1.232160
     42          6           0       -0.365784   -4.814888    1.232142
     43          6           0        1.042140   -4.763770    3.666300
     44          6           0       -0.320792   -4.866147    3.666276
     45          6           0        3.005870   -3.839840    0.022973
     46          6           0        1.822203   -4.523240    0.022978
     47          6           0        3.014115   -3.772049    2.457097
     48          6           0        1.759376   -4.496524    2.457099
     49          6           0        4.352170   -2.090586    1.232144
     50          6           0        3.536112   -3.287778    1.232160
     51          6           0        4.373971   -2.155107    3.666279
     52          6           0        3.604135   -3.284444    3.666298
     53          6           0        4.875880   -0.043762    0.022937
     54          6           0        4.672189   -1.395275    0.022938
     55          6           0        4.828168    0.004937    2.457072
     56          6           0        4.612248   -1.427744    2.457071
     57          1           0        4.317120    2.594383    4.614532
     58          1           0        5.028080    0.288532    4.614507
     59          1           0        2.764253    4.210943   -0.925247
     60          1           0        4.405178    2.441844   -0.925275
     61          1           0        0.663555    4.993012    4.614572
     62          1           0        2.909825    4.111719    4.614551
     63          1           0       -1.568380    4.786242   -0.925262
     64          1           0        0.837803    4.966917   -0.925236
     65          1           0       -3.489818    3.631854    4.614514
     66          1           0       -1.400163    4.838411    4.614514
     67          1           0       -4.719650    1.757664   -0.925232
     68          1           0       -3.360536    3.751432   -0.925274
     69          1           0       -5.014955   -0.464263    4.614563
     70          1           0       -4.655289    1.921727    4.614564
     71          1           0       -4.317119   -2.594382   -0.925264
     72          1           0       -5.028079   -0.288532   -0.925239
     73          1           0       -2.764251   -4.210942    4.614515
     74          1           0       -4.405177   -2.441844    4.614543
     75          1           0       -0.663554   -4.993011   -0.925304
     76          1           0       -2.909824   -4.111719   -0.925283
     77          1           0        1.568382   -4.786242    4.614530
     78          1           0       -0.837802   -4.966916    4.614504
     79          1           0        3.489819   -3.631854   -0.925246
     80          1           0        1.400164   -4.838411   -0.925246
     81          1           0        4.719651   -1.757663    4.614500
     82          1           0        3.360537   -3.751432    4.614542
     83          1           0        5.014956    0.464263   -0.925295
     84          1           0        4.655290   -1.921727   -0.925296
 ---------------------------------------------------------------------
 Rotational constants (GHZ):           0.0519596           0.0519497           0.0305558
 Standard basis: 6-311G(d) (5D, 7F)
  1092 basis functions,  1932 primitive gaussians,  1148 cartesian basis functions
   182 alpha electrons      182 beta electrons
       nuclear repulsion energy      6745.6988408465 Hartrees.
 NAtoms=   84 NActive=   84 NUniq=   84 SFac= 1.00D+00 NAtFMM=   60 NAOKFM=T Big=T
 Integral buffers will be    131072 words long.
 Raffenetti 2 integral format.
 Two-electron integral symmetry is turned off.
 One-electron integrals computed using PRISM.
 NBasis=  1092 RedAO= T EigKep=  4.09D-05  NBF=  1092
 NBsUse=  1092 1.00D-06 EigRej= -1.00D+00 NBFU=  1092
 ExpMin= 1.03D-01 ExpMax= 4.56D+03 ExpMxC= 6.82D+02 IAcc=3 IRadAn=         5 AccDes= 0.00D+00
 Harris functional with IExCor=  402 and IRadAn=       5 diagonalized for initial guess.
 HarFok:  IExCor=  402 AccDes= 0.00D+00 IRadAn=         5 IDoV= 1 UseB2=F ITyADJ=14
 ICtDFT=  3500011 ScaDFX=  1.000000  1.000000  1.000000  1.000000
 FoFCou: FMM=F IPFlag=           0 FMFlag=      100000 FMFlg1=        2001
         NFxFlg=           0 DoJE=T BraDBF=F KetDBF=T FulRan=T
         wScrn=  0.000000 ICntrl=       500 IOpCl=  0 I1Cent=   200000004 NGrid=           0
         NMat0=    1 NMatS0=      1 NMatT0=    0 NMatD0=    1 NMtDS0=    0 NMtDT0=    0
 Symmetry not used in FoFCou.
 Requested convergence on RMS density matrix=1.00D-08 within 128 cycles.
 Requested convergence on MAX density matrix=1.00D-06.
 Requested convergence on             energy=1.00D-06.
 No special actions if energy rises.
 Integral accuracy reduced to 1.0D-05 until final iterations.
 Rare condition: small coef for last iteration:  0.000D+00
 Initial convergence to 1.0D-05 achieved.  Increase integral accuracy.
 SCF Done:  E(RB3LYP) =  -2151.26953374     A.U. after   15 cycles
            NFock= 15  Conv=0.83D-08     -V/T= 2.0044

 **********************************************************************

            Population analysis using the SCF Density.

 **********************************************************************

 Alpha  occ. eigenvalues --  -10.19319 -10.19319 -10.19318 -10.19316 -10.19316
 Alpha  occ. eigenvalues --  -10.19313 -10.19313 -10.19307 -10.19307 -10.19300
 Alpha  occ. eigenvalues --  -10.19300 -10.19292 -10.19292 -10.19287 -10.19276
 Alpha  occ. eigenvalues --  -10.19270 -10.19270 -10.19262 -10.19262 -10.19254
 Alpha  occ. eigenvalues --  -10.19254 -10.19248 -10.19247 -10.19243 -10.19243
 Alpha  occ. eigenvalues --  -10.19240 -10.19240 -10.19239 -10.18167 -10.18167
 Alpha  occ. eigenvalues --  -10.18167 -10.18167 -10.18166 -10.18166 -10.18166
 Alpha  occ. eigenvalues --  -10.18166 -10.18166 -10.18166 -10.18166 -10.18165
 Alpha  occ. eigenvalues --  -10.18165 -10.18165 -10.18102 -10.18102 -10.18102
 Alpha  occ. eigenvalues --  -10.18102 -10.18102 -10.18102 -10.18102 -10.18102
 Alpha  occ. eigenvalues --  -10.18102 -10.18102 -10.18101 -10.18101 -10.18101
 Alpha  occ. eigenvalues --  -10.18101  -0.90423  -0.89952  -0.89952  -0.88552
 Alpha  occ. eigenvalues --   -0.88552  -0.86269  -0.86269  -0.83249  -0.83249
 Alpha  occ. eigenvalues --   -0.82115  -0.81748  -0.81748  -0.81042  -0.81041
 Alpha  occ. eigenvalues --   -0.78177  -0.78177  -0.77943  -0.77943  -0.75622
 Alpha  occ. eigenvalues --   -0.75622  -0.74192  -0.74192  -0.73249  -0.73249
 Alpha  occ. eigenvalues --   -0.71906  -0.71906  -0.71626  -0.70754  -0.66302
 Alpha  occ. eigenvalues --   -0.64656  -0.64656  -0.63790  -0.63790  -0.63639
 Alpha  occ. eigenvalues --   -0.63639  -0.62627  -0.62569  -0.62569  -0.61405
 Alpha  occ. eigenvalues --   -0.61405  -0.59168  -0.59168  -0.56080  -0.56080
 Alpha  occ. eigenvalues --   -0.55199  -0.55199  -0.54297  -0.53311  -0.52396
 Alpha  occ. eigenvalues --   -0.52396  -0.51941  -0.51791  -0.51791  -0.51196
 Alpha  occ. eigenvalues --   -0.51195  -0.49970  -0.49970  -0.49013  -0.49013
 Alpha  occ. eigenvalues --   -0.47325  -0.47325  -0.46219  -0.46219  -0.45843
 Alpha  occ. eigenvalues --   -0.45843  -0.45163  -0.45038  -0.45038  -0.43360
 Alpha  occ. eigenvalues --   -0.43192  -0.43192  -0.42961  -0.42715  -0.42715
 Alpha  occ. eigenvalues --   -0.42363  -0.42363  -0.42331  -0.42330  -0.42143
 Alpha  occ. eigenvalues --   -0.42143  -0.41021  -0.41021  -0.40929  -0.40929
 Alpha  occ. eigenvalues --   -0.40865  -0.40865  -0.40345  -0.40345  -0.40275
 Alpha  occ. eigenvalues --   -0.39779  -0.39778  -0.37512  -0.37512  -0.36293
 Alpha  occ. eigenvalues --   -0.36293  -0.35765  -0.35764  -0.34692  -0.34691
 Alpha  occ. eigenvalues --   -0.33822  -0.33822  -0.33299  -0.33087  -0.32968
 Alpha  occ. eigenvalues --   -0.32968  -0.32575  -0.32575  -0.32402  -0.32402
 Alpha  occ. eigenvalues --   -0.31494  -0.31224  -0.31224  -0.28495  -0.28495
 Alpha  occ. eigenvalues --   -0.27830  -0.27829  -0.25889  -0.25889  -0.23270
 Alpha  occ. eigenvalues --   -0.23269  -0.22835  -0.22835  -0.21390  -0.21390
 Alpha  occ. eigenvalues --   -0.20728  -0.19712
 Alpha virt. eigenvalues --   -0.07615  -0.05546  -0.05363  -0.05363  -0.04533
 Alpha virt. eigenvalues --   -0.04533  -0.04344  -0.04344  -0.02700  -0.02699
 Alpha virt. eigenvalues --    0.00039   0.00039   0.00855   0.00856   0.03673
 Alpha virt. eigenvalues --    0.04112   0.04113   0.04193   0.04193   0.04500
 Alpha virt. eigenvalues --    0.04857   0.04857   0.05952   0.05952   0.06201
 Alpha virt. eigenvalues --    0.06202   0.06208   0.06209   0.07319   0.07319
 Alpha virt. eigenvalues --    0.08367   0.08367   0.08401   0.08402   0.08696
 Alpha virt. eigenvalues --    0.09656   0.09656   0.12800   0.12800   0.13068
 Alpha virt. eigenvalues --    0.13070   0.13626   0.13627   0.15374   0.15376
 Alpha virt. eigenvalues --    0.15693   0.15694   0.16159   0.16160   0.16451
 Alpha virt. eigenvalues --    0.19450   0.19451   0.19525   0.19526   0.19655
 Alpha virt. eigenvalues --    0.21345   0.21345   0.22430   0.22431   0.22452
 Alpha virt. eigenvalues --    0.22453   0.22681   0.22948   0.22949   0.24207
 Alpha virt. eigenvalues --    0.24645   0.24910   0.24910   0.25446   0.25446
 Alpha virt. eigenvalues --    0.25566   0.25566   0.25801   0.26059   0.26059
 Alpha virt. eigenvalues --    0.27186   0.27186   0.27994   0.27994   0.29073
 Alpha virt. eigenvalues --    0.29074   0.29787   0.29787   0.30289   0.30289
 Alpha virt. eigenvalues --    0.31469   0.31469   0.31913   0.32067   0.32307
 Alpha virt. eigenvalues --    0.32307   0.33681   0.33682   0.33922   0.33922
 Alpha virt. eigenvalues --    0.34301   0.34301   0.34376   0.35133   0.35133
 Alpha virt. eigenvalues --    0.35866   0.36186   0.36187   0.36322   0.36513
 Alpha virt. eigenvalues --    0.36513   0.36614   0.36614   0.37092   0.37093
 Alpha virt. eigenvalues --    0.38219   0.38220   0.38640   0.38640   0.38768
 Alpha virt. eigenvalues --    0.39977   0.40069   0.40070   0.40188   0.40189
 Alpha virt. eigenvalues --    0.40568   0.40569   0.40746   0.40747   0.41415
 Alpha virt. eigenvalues --    0.41416   0.42011   0.42012   0.42130   0.42349
 Alpha virt. eigenvalues --    0.42349   0.42469   0.42469   0.42781   0.42782
 Alpha virt. eigenvalues --    0.42785   0.43009   0.43010   0.43166   0.43166
 Alpha virt. eigenvalues --    0.43314   0.43688   0.44034   0.44035   0.44298
 Alpha virt. eigenvalues --    0.44298   0.44554   0.44554   0.44826   0.44826
 Alpha virt. eigenvalues --    0.44902   0.46422   0.46423   0.46567   0.46568
 Alpha virt. eigenvalues --    0.46754   0.46755   0.47142   0.47142   0.47486
 Alpha virt. eigenvalues --    0.47486   0.47570   0.47595   0.47724   0.47725
 Alpha virt. eigenvalues --    0.47759   0.47759   0.48010   0.48011   0.48310
 Alpha virt. eigenvalues --    0.48310   0.48853   0.48854   0.49097   0.49097
 Alpha virt. eigenvalues --    0.49483   0.49484   0.49637   0.49638   0.49755
 Alpha virt. eigenvalues --    0.49756   0.50689   0.50690   0.50872   0.50873
 Alpha virt. eigenvalues --    0.51517   0.52850   0.52851   0.54379   0.54380
 Alpha virt. eigenvalues --    0.54611   0.54612   0.55911   0.55912   0.56220
 Alpha virt. eigenvalues --    0.56221   0.56973   0.57008   0.57008   0.57580
 Alpha virt. eigenvalues --    0.57581   0.58176   0.58177   0.58745   0.59601
 Alpha virt. eigenvalues --    0.59602   0.60108   0.60601   0.60601   0.60611
 Alpha virt. eigenvalues --    0.60611   0.60883   0.61419   0.61419   0.61587
 Alpha virt. eigenvalues --    0.61587   0.62264   0.62264   0.62425   0.62425
 Alpha virt. eigenvalues --    0.62449   0.62449   0.62567   0.62568   0.62951
 Alpha virt. eigenvalues --    0.64265   0.64265   0.64646   0.64646   0.65551
 Alpha virt. eigenvalues --    0.66234   0.66234   0.66662   0.66663   0.66748
 Alpha virt. eigenvalues --    0.66749   0.67339   0.67339   0.68103   0.68105
 Alpha virt. eigenvalues --    0.68904   0.69045   0.69046   0.70922   0.70922
 Alpha virt. eigenvalues --    0.71060   0.71089   0.71089   0.73681   0.73681
 Alpha virt. eigenvalues --    0.73743   0.74023   0.74024   0.74474   0.74476
 Alpha virt. eigenvalues --    0.74515   0.74516   0.74963   0.74963   0.74993
 Alpha virt. eigenvalues --    0.75111   0.75112   0.75312   0.75312   0.75603
 Alpha virt. eigenvalues --    0.76175   0.76176   0.76719   0.76722   0.76772
 Alpha virt. eigenvalues --    0.76772   0.76844   0.77067   0.77069   0.77857
 Alpha virt. eigenvalues --    0.77858   0.77878   0.77882   0.78175   0.78177
 Alpha virt. eigenvalues --    0.78450   0.78451   0.80485   0.80763   0.80763
 Alpha virt. eigenvalues --    0.80918   0.80919   0.81947   0.81948   0.83103
 Alpha virt. eigenvalues --    0.83105   0.83428   0.83429   0.83972   0.84626
 Alpha virt. eigenvalues --    0.84628   0.84947   0.84948   0.85190   0.85191
 Alpha virt. eigenvalues --    0.85524   0.85526   0.86131   0.86132   0.87779
 Alpha virt. eigenvalues --    0.87780   0.87788   0.87789   0.87820   0.88076
 Alpha virt. eigenvalues --    0.88079   0.88367   0.88368   0.89796   0.90531
 Alpha virt. eigenvalues --    0.90967   0.90968   0.91262   0.91264   0.92572
 Alpha virt. eigenvalues --    0.93091   0.94402   0.94404   0.95451   0.95706
 Alpha virt. eigenvalues --    0.95707   0.99121   0.99368   0.99431   0.99432
 Alpha virt. eigenvalues --    0.99708   0.99710   1.00237   1.00237   1.00385
 Alpha virt. eigenvalues --    1.01043   1.01045   1.02060   1.02064   1.04179
 Alpha virt. eigenvalues --    1.04671   1.04672   1.04975   1.04977   1.05292
 Alpha virt. eigenvalues --    1.05294   1.06373   1.06374   1.07104   1.07107
 Alpha virt. eigenvalues --    1.07475   1.07477   1.07590   1.07593   1.08074
 Alpha virt. eigenvalues --    1.08467   1.08602   1.08607   1.09501   1.09503
 Alpha virt. eigenvalues --    1.09944   1.09944   1.10602   1.10605   1.11300
 Alpha virt. eigenvalues --    1.11301   1.12981   1.12982   1.13133   1.13135
 Alpha virt. eigenvalues --    1.14181   1.14185   1.15375   1.15590   1.15591
 Alpha virt. eigenvalues --    1.15988   1.15989   1.16721   1.16723   1.17762
 Alpha virt. eigenvalues --    1.17766   1.18651   1.19868   1.19870   1.20759
 Alpha virt. eigenvalues --    1.20760   1.20876   1.20876   1.21576   1.21577
 Alpha virt. eigenvalues --    1.22409   1.25436   1.25437   1.25492   1.25514
 Alpha virt. eigenvalues --    1.25516   1.26007   1.26374   1.26375   1.26639
 Alpha virt. eigenvalues --    1.26641   1.27414   1.27418   1.27418   1.28945
 Alpha virt. eigenvalues --    1.28946   1.30965   1.30969   1.31822   1.31826
 Alpha virt. eigenvalues --    1.33302   1.33303   1.35163   1.35165   1.35270
 Alpha virt. eigenvalues --    1.35271   1.36231   1.36457   1.36459   1.38299
 Alpha virt. eigenvalues --    1.40413   1.41968   1.43105   1.43107   1.43200
 Alpha virt. eigenvalues --    1.43202   1.43574   1.43576   1.43698   1.43699
 Alpha virt. eigenvalues --    1.44397   1.44399   1.44795   1.44795   1.46022
 Alpha virt. eigenvalues --    1.46023   1.46594   1.47196   1.47197   1.47647
 Alpha virt. eigenvalues --    1.48570   1.48571   1.48641   1.48642   1.50887
 Alpha virt. eigenvalues --    1.50887   1.51564   1.51566   1.52017   1.52017
 Alpha virt. eigenvalues --    1.52177   1.52409   1.52409   1.53075   1.53075
 Alpha virt. eigenvalues --    1.55039   1.55040   1.55101   1.55101   1.55577
 Alpha virt. eigenvalues --    1.55577   1.56606   1.56798   1.56799   1.57855
 Alpha virt. eigenvalues --    1.57856   1.58329   1.58329   1.59569   1.59571
 Alpha virt. eigenvalues --    1.63071   1.63072   1.65247   1.65247   1.65266
 Alpha virt. eigenvalues --    1.65266   1.66016   1.66076   1.66076   1.66598
 Alpha virt. eigenvalues --    1.66774   1.66775   1.68296   1.68296   1.68702
 Alpha virt. eigenvalues --    1.68703   1.69399   1.70858   1.71188   1.71189
 Alpha virt. eigenvalues --    1.71584   1.71586   1.71942   1.71943   1.73732
 Alpha virt. eigenvalues --    1.73733   1.74709   1.74713   1.75281   1.75753
 Alpha virt. eigenvalues --    1.75755   1.77083   1.77083   1.77863   1.79464
 Alpha virt. eigenvalues --    1.79465   1.79821   1.79823   1.80735   1.80735
 Alpha virt. eigenvalues --    1.80793   1.80948   1.80948   1.81015   1.81016
 Alpha virt. eigenvalues --    1.84730   1.84731   1.86031   1.86300   1.86300
 Alpha virt. eigenvalues --    1.86593   1.86739   1.86739   1.86813   1.87193
 Alpha virt. eigenvalues --    1.87193   1.89005   1.89005   1.89612   1.89613
 Alpha virt. eigenvalues --    1.90013   1.90394   1.90395   1.90581   1.90582
 Alpha virt. eigenvalues --    1.91487   1.91877   1.91878   1.92156   1.92157
 Alpha virt. eigenvalues --    1.92217   1.92220   1.92250   1.93038   1.93040
 Alpha virt. eigenvalues --    1.93258   1.93260   1.95070   1.95070   1.96435
 Alpha virt. eigenvalues --    1.96436   1.97540   1.97541   1.97554   1.97554
 Alpha virt. eigenvalues --    1.98353   1.98354   2.01972   2.02115   2.02116
 Alpha virt. eigenvalues --    2.04002   2.04003   2.04761   2.04763   2.04920
 Alpha virt. eigenvalues --    2.04921   2.07241   2.07422   2.07423   2.07451
 Alpha virt. eigenvalues --    2.07452   2.09126   2.09127   2.09852   2.11420
 Alpha virt. eigenvalues --    2.11420   2.12921   2.14334   2.14336   2.14825
 Alpha virt. eigenvalues --    2.14825   2.16390   2.19178   2.19594   2.19597
 Alpha virt. eigenvalues --    2.20118   2.20119   2.21562   2.21564   2.21930
 Alpha virt. eigenvalues --    2.21960   2.21962   2.23265   2.23268   2.23346
 Alpha virt. eigenvalues --    2.23347   2.23384   2.23386   2.23748   2.23748
 Alpha virt. eigenvalues --    2.25329   2.25331   2.27491   2.29390   2.29391
 Alpha virt. eigenvalues --    2.31493   2.31494   2.32018   2.32018   2.32322
 Alpha virt. eigenvalues --    2.32591   2.32591   2.32847   2.32850   2.33095
 Alpha virt. eigenvalues --    2.33439   2.33441   2.33648   2.33649   2.35115
 Alpha virt. eigenvalues --    2.35115   2.35639   2.35639   2.37588   2.37589
 Alpha virt. eigenvalues --    2.39485   2.39485   2.41857   2.41858   2.42269
 Alpha virt. eigenvalues --    2.43620   2.43671   2.43672   2.44561   2.44562
 Alpha virt. eigenvalues --    2.45140   2.45142   2.46130   2.46132   2.47640
 Alpha virt. eigenvalues --    2.47641   2.48300   2.48301   2.51605   2.53455
 Alpha virt. eigenvalues --    2.53456   2.54440   2.54441   2.56379   2.56460
 Alpha virt. eigenvalues --    2.56461   2.57861   2.57861   2.59632   2.59633
 Alpha virt. eigenvalues --    2.60028   2.61044   2.61045   2.61054   2.62520
 Alpha virt. eigenvalues --    2.62793   2.62794   2.63933   2.63933   2.64882
 Alpha virt. eigenvalues --    2.64882   2.65335   2.65336   2.66718   2.66720
 Alpha virt. eigenvalues --    2.68093   2.68094   2.69649   2.69650   2.72225
 Alpha virt. eigenvalues --    2.72226   2.72782   2.72783   2.72938   2.72939
 Alpha virt. eigenvalues --    2.74746   2.76081   2.76082   2.78039   2.78039
 Alpha virt. eigenvalues --    2.79096   2.79098   2.79302   2.79303   2.79323
 Alpha virt. eigenvalues --    2.79325   2.79364   2.79364   2.80249   2.83118
 Alpha virt. eigenvalues --    2.83476   2.83481   2.90058   2.90059   2.90239
 Alpha virt. eigenvalues --    2.90241   2.90377   2.90378   2.92368   2.94484
 Alpha virt. eigenvalues --    2.94485   2.96606   2.96607   2.97968   2.97969
 Alpha virt. eigenvalues --    2.98458   2.99551   2.99551   3.00597   3.00598
 Alpha virt. eigenvalues --    3.01975   3.01975   3.02225   3.02225   3.02674
 Alpha virt. eigenvalues --    3.07259   3.07260   3.07928   3.07928   3.11536
 Alpha virt. eigenvalues --    3.11688   3.11689   3.11844   3.12130   3.12228
 Alpha virt. eigenvalues --    3.12229   3.12285   3.12286   3.12440   3.12442
 Alpha virt. eigenvalues --    3.12641   3.12642   3.13577   3.13578   3.13898
 Alpha virt. eigenvalues --    3.13899   3.16233   3.16388   3.16389   3.17094
 Alpha virt. eigenvalues --    3.17096   3.17690   3.18141   3.18143   3.20450
 Alpha virt. eigenvalues --    3.20451   3.22249   3.22250   3.22852   3.22853
 Alpha virt. eigenvalues --    3.25912   3.25913   3.27529   3.27530   3.27936
 Alpha virt. eigenvalues --    3.27936   3.28345   3.29150   3.29151   3.29669
 Alpha virt. eigenvalues --    3.29670   3.30000   3.30073   3.30073   3.30251
 Alpha virt. eigenvalues --    3.30252   3.31145   3.31216   3.31220   3.31757
 Alpha virt. eigenvalues --    3.31757   3.34570   3.34572   3.38357   3.38357
 Alpha virt. eigenvalues --    3.38645   3.38646   3.39309   3.39309   3.40298
 Alpha virt. eigenvalues --    3.40300   3.40562   3.41744   3.41745   3.43284
 Alpha virt. eigenvalues --    3.45332   3.45333   3.45531   3.45532   3.50064
 Alpha virt. eigenvalues --    3.50064   3.50263   3.52878   3.52878   3.53191
 Alpha virt. eigenvalues --    3.53192   3.53529   3.54952   3.54952   3.55759
 Alpha virt. eigenvalues --    3.55760   3.56616   3.56617   3.57394   3.60139
 Alpha virt. eigenvalues --    3.60139   3.66218   3.69595   3.75056   3.75056
 Alpha virt. eigenvalues --    3.81573   3.81575   3.82003   3.82005   3.82117
 Alpha virt. eigenvalues --    3.82117   3.84329   3.85784   3.85785   3.86888
 Alpha virt. eigenvalues --    3.86888   4.05713   4.08085   4.08087   4.11214
 Alpha virt. eigenvalues --    4.11217   4.13664   4.13666   4.20181   4.20182
 Alpha virt. eigenvalues --    4.33319   4.33325   4.49314   4.49321   4.58308
 Alpha virt. eigenvalues --    4.65467   4.65471   4.65727   4.65729   4.67415
 Alpha virt. eigenvalues --    4.67419   4.68672   4.69421   4.69423   4.75423
 Alpha virt. eigenvalues --    4.75424   4.81303   4.81305   4.84014  23.10036
 Alpha virt. eigenvalues --   23.18635  23.18636  23.35563  23.35565  23.51313
 Alpha virt. eigenvalues --   23.51314  23.58471  23.59814  23.59815  23.60833
 Alpha virt. eigenvalues --   23.60833  23.62132  23.62134  23.82709  23.82710
 Alpha virt. eigenvalues --   23.83165  23.83166  23.83317  23.83382  23.83383
 Alpha virt. eigenvalues --   23.83926  23.83927  23.88456  23.88459  23.92981
 Alpha virt. eigenvalues --   23.92982  23.94915  23.96996  23.97459  23.97459
 Alpha virt. eigenvalues --   23.97904  23.97905  23.98324  23.98324  23.98960
 Alpha virt. eigenvalues --   23.98961  23.99921  23.99922  24.01174  24.01175
 Alpha virt. eigenvalues --   24.01960  24.11184  24.11186  24.11286  24.11288
 Alpha virt. eigenvalues --   24.11713  24.11715  24.11913  24.11915  24.12884
 Alpha virt. eigenvalues --   24.12885  24.12904  24.12905  24.13481  24.13798
          Condensed to atoms (all electrons):
 Mulliken charges:
               1
     1  C    0.021360
     2  C    0.021457
     3  C   -0.216636
     4  C   -0.216633
     5  C   -0.216677
     6  C   -0.216613
     7  C    0.021433
     8  C    0.021441
     9  C    0.021388
    10  C    0.021434
    11  C   -0.216617
    12  C   -0.216678
    13  C   -0.216642
    14  C   -0.216639
    15  C    0.021411
    16  C    0.021428
    17  C    0.021366
    18  C    0.021452
    19  C   -0.216644
    20  C   -0.216645
    21  C   -0.216656
    22  C   -0.216627
    23  C    0.021348
    24  C    0.021458
    25  C    0.021385
    26  C    0.021489
    27  C   -0.216657
    28  C   -0.216621
    29  C   -0.216636
    30  C   -0.216633
    31  C    0.021360
    32  C    0.021457
    33  C    0.021434
    34  C    0.021442
    35  C   -0.216676
    36  C   -0.216613
    37  C   -0.216616
    38  C   -0.216679
    39  C    0.021389
    40  C    0.021432
    41  C    0.021411
    42  C    0.021427
    43  C   -0.216642
    44  C   -0.216639
    45  C   -0.216643
    46  C   -0.216646
    47  C    0.021365
    48  C    0.021452
    49  C    0.021348
    50  C    0.021459
    51  C   -0.216656
    52  C   -0.216626
    53  C   -0.216657
    54  C   -0.216621
    55  C    0.021386
    56  C    0.021488
    57  H    0.195226
    58  H    0.195217
    59  H    0.195230
    60  H    0.195222
    61  H    0.195218
    62  H    0.195224
    63  H    0.195235
    64  H    0.195213
    65  H    0.195230
    66  H    0.195231
    67  H    0.195229
    68  H    0.195217
    69  H    0.195231
    70  H    0.195215
    71  H    0.195226
    72  H    0.195216
    73  H    0.195230
    74  H    0.195222
    75  H    0.195218
    76  H    0.195223
    77  H    0.195235
    78  H    0.195212
    79  H    0.195230
    80  H    0.195231
    81  H    0.195228
    82  H    0.195216
    83  H    0.195231
    84  H    0.195214
 Sum of Mulliken charges =  -0.00000
 Mulliken charges with hydrogens summed into heavy atoms:
               1
     1  C    0.021360
     2  C    0.021457
     3  C   -0.021411
     4  C   -0.021416
     5  C   -0.021446
     6  C   -0.021391
     7  C    0.021433
     8  C    0.021441
     9  C    0.021388
    10  C    0.021434
    11  C   -0.021399
    12  C   -0.021455
    13  C   -0.021407
    14  C   -0.021427
    15  C    0.021411
    16  C    0.021428
    17  C    0.021366
    18  C    0.021452
    19  C   -0.021414
    20  C   -0.021414
    21  C   -0.021428
    22  C   -0.021410
    23  C    0.021348
    24  C    0.021458
    25  C    0.021385
    26  C    0.021489
    27  C   -0.021426
    28  C   -0.021406
    29  C   -0.021410
    30  C   -0.021416
    31  C    0.021360
    32  C    0.021457
    33  C    0.021434
    34  C    0.021442
    35  C   -0.021446
    36  C   -0.021391
    37  C   -0.021398
    38  C   -0.021456
    39  C    0.021389
    40  C    0.021432
    41  C    0.021411
    42  C    0.021427
    43  C   -0.021407
    44  C   -0.021426
    45  C   -0.021413
    46  C   -0.021415
    47  C    0.021365
    48  C    0.021452
    49  C    0.021348
    50  C    0.021459
    51  C   -0.021428
    52  C   -0.021410
    53  C   -0.021426
    54  C   -0.021407
    55  C    0.021386
    56  C    0.021488
 Electronic spatial extent (au):  <R**2>=          38894.6968
 Charge=              0.0000 electrons
 Dipole moment (field-independent basis, Debye):
    X=             -0.0000    Y=              0.0000    Z=             -0.0000  Tot=              0.0000
 Quadrupole moment (field-independent basis, Debye-Ang):
   XX=           -334.0343   YY=           -334.0313   ZZ=           -271.2506
   XY=             -0.0011   XZ=             -0.0012   YZ=              0.0004
 Traceless Quadrupole moment (field-independent basis, Debye-Ang):
   XX=            -20.9289   YY=            -20.9259   ZZ=             41.8548
   XY=             -0.0011   XZ=             -0.0012   YZ=              0.0004
 Octapole moment (field-independent basis, Debye-Ang**2):
  XXX=             -0.0003  YYY=              0.0000  ZZZ=          -1501.0744  XYY=             -0.0005
  XXY=             -0.0002  XXZ=           -616.1712  XZZ=             -0.0047  YZZ=              0.0016
  YYZ=           -616.1656  XYZ=             -0.0020
 Hexadecapole moment (field-independent basis, Debye-Ang**3):
 XXXX=         -24332.3017 YYYY=         -24336.3150 ZZZZ=          -9549.0965 XXXY=             -0.8553
 XXXZ=              0.0193 YYYX=             -0.8689 YYYZ=             -0.0478 ZZZX=              0.0163
 ZZZY=             -0.0381 XXYY=          -8111.4172 XXZZ=          -5118.5962 YYZZ=          -5119.1065
 XXYZ=              0.0132 YYXZ=             -0.0242 ZZXY=             -0.2393
 N-N= 6.745698840847D+03 E-N=-1.848294737777D+04  KE= 2.141908617716D+03
 There are a total of     1934520 grid points.
 ElSum from          density=      363.9998250897
 ElSum from atomic densities=      363.9996717670
 Hirshfeld populations at iteration   1 (CA, CB, DipXYZ):
               1          2          3          4          5
     1  C    3.000875   3.000875   0.012565  -0.015294  -0.011550
     2  C    3.000881   3.000881   0.001814   0.019732  -0.011551
     3  C    3.020941   3.020941  -0.017838   0.058466   0.023377
     4  C    3.020947   3.020947   0.018219  -0.058336   0.023375
     5  C    3.020941   3.020941  -0.041438   0.044924  -0.023380
     6  C    3.020939   3.020939   0.041672  -0.044719  -0.023380
     7  C    3.000878   3.000878   0.017998  -0.008287   0.011549
     8  C    3.000878   3.000878  -0.006939   0.018551   0.011537
     9  C    3.000876   3.000876   0.019808   0.000336  -0.011536
    10  C    3.000882   3.000882  -0.014287   0.013739  -0.011544
    11  C    3.020939   3.020939  -0.056837   0.022485   0.023371
    12  C    3.020943   3.020943   0.056973  -0.022135   0.023364
    13  C    3.020940   3.020940  -0.060963  -0.004409  -0.023385
    14  C    3.020944   3.020944   0.060927   0.004781  -0.023370
    15  C    3.000876   3.000876   0.017706   0.008859   0.011543
    16  C    3.000879   3.000879  -0.018827   0.006133   0.011546
    17  C    3.000878   3.000878   0.012092   0.015669  -0.011530
    18  C    3.000880   3.000880  -0.019616  -0.002638  -0.011534
    19  C    3.020940   3.020940  -0.053031  -0.030404   0.023378
    20  C    3.020942   3.020942   0.052845   0.030727   0.023376
    21  C    3.020941   3.020941  -0.034587  -0.050384  -0.023367
    22  C    3.020944   3.020944   0.034256   0.050612  -0.023372
    23  C    3.000876   3.000876   0.004121   0.019382   0.011537
    24  C    3.000877   3.000877  -0.016542  -0.010914   0.011542
    25  C    3.000880   3.000880  -0.004726   0.019225  -0.011529
    26  C    3.000881   3.000881  -0.010181  -0.016966  -0.011531
    27  C    3.020941   3.020941  -0.009278  -0.060424   0.023384
    28  C    3.020942   3.020942   0.008935   0.060471   0.023382
    29  C    3.020941   3.020941   0.017838  -0.058466  -0.023377
    30  C    3.020947   3.020947  -0.018219   0.058335  -0.023375
    31  C    3.000875   3.000875  -0.012565   0.015294   0.011550
    32  C    3.000881   3.000881  -0.001814  -0.019732   0.011551
    33  C    3.000878   3.000878  -0.017998   0.008287  -0.011549
    34  C    3.000878   3.000878   0.006939  -0.018551  -0.011537
    35  C    3.020941   3.020941   0.041438  -0.044924   0.023380
    36  C    3.020939   3.020939  -0.041672   0.044719   0.023380
    37  C    3.020939   3.020939   0.056837  -0.022485  -0.023371
    38  C    3.020943   3.020943  -0.056973   0.022135  -0.023364
    39  C    3.000876   3.000876  -0.019808  -0.000337   0.011537
    40  C    3.000881   3.000881   0.014287  -0.013739   0.011544
    41  C    3.000876   3.000876  -0.017706  -0.008859  -0.011543
    42  C    3.000879   3.000879   0.018827  -0.006133  -0.011546
    43  C    3.020940   3.020940   0.060963   0.004409   0.023385
    44  C    3.020944   3.020944  -0.060927  -0.004781   0.023370
    45  C    3.020940   3.020940   0.053031   0.030404  -0.023378
    46  C    3.020942   3.020942  -0.052845  -0.030727  -0.023376
    47  C    3.000878   3.000878  -0.012092  -0.015668   0.011530
    48  C    3.000881   3.000881   0.019616   0.002637   0.011534
    49  C    3.000876   3.000876  -0.004121  -0.019383  -0.011537
    50  C    3.000877   3.000877   0.016543   0.010914  -0.011542
    51  C    3.020941   3.020941   0.034587   0.050384   0.023367
    52  C    3.020944   3.020944  -0.034256  -0.050612   0.023372
    53  C    3.020941   3.020941   0.009278   0.060424  -0.023384
    54  C    3.020942   3.020942  -0.008935  -0.060470  -0.023382
    55  C    3.000880   3.000880   0.004726  -0.019225   0.011529
    56  C    3.000881   3.000881   0.010181   0.016966   0.011531
    57  H    0.478177   0.478177  -0.007083   0.061123   0.132489
    58  H    0.478178   0.478178   0.028565  -0.054502   0.132489
    59  H    0.478177   0.478177  -0.032901   0.052003  -0.132488
    60  H    0.478176   0.478176   0.049374  -0.036714  -0.132489
    61  H    0.478176   0.478176  -0.052218   0.032550   0.132488
    62  H    0.478177   0.478177   0.060428  -0.011634   0.132490
    63  H    0.478176   0.478176  -0.061168   0.006683  -0.132490
    64  H    0.478178   0.478178   0.059487   0.015740  -0.132489
    65  H    0.478177   0.478177  -0.058021  -0.020512   0.132485
    66  H    0.478176   0.478176   0.046764   0.040001   0.132489
    67  H    0.478177   0.478177  -0.043363  -0.043657  -0.132488
    68  H    0.478177   0.478177   0.024789   0.056315  -0.132493
    69  H    0.478177   0.478177  -0.020131  -0.058145   0.132489
    70  H    0.478177   0.478177  -0.002091   0.061496   0.132488
    71  H    0.478177   0.478177   0.007083  -0.061123  -0.132489
    72  H    0.478178   0.478178  -0.028565   0.054502  -0.132489
    73  H    0.478177   0.478177   0.032901  -0.052003   0.132488
    74  H    0.478176   0.478176  -0.049374   0.036714   0.132489
    75  H    0.478176   0.478176   0.052218  -0.032550  -0.132488
    76  H    0.478177   0.478177  -0.060428   0.011634  -0.132490
    77  H    0.478176   0.478176   0.061168  -0.006683   0.132490
    78  H    0.478178   0.478178  -0.059487  -0.015740   0.132489
    79  H    0.478177   0.478177   0.058021   0.020512  -0.132485
    80  H    0.478176   0.478176  -0.046764  -0.040001  -0.132489
    81  H    0.478177   0.478177   0.043363   0.043657   0.132488
    82  H    0.478177   0.478177  -0.024789  -0.056315   0.132493
    83  H    0.478177   0.478177   0.020131   0.058145  -0.132489
    84  H    0.478177   0.478177   0.002091  -0.061496  -0.132488
       Tot 181.999913 181.999913   0.000000   0.000000  -0.000001

 Dip from Atomic Chgs             -0.000000   0.000000   0.000606
         Total Dipole             -0.000000   0.000000   0.000605

 Hirshfeld charges, spin densities, dipoles, and CM5 charges using IRadAn=      5:
              Q-H        S-H        Dx         Dy         Dz        Q-CM5   
     1  C   -0.001750   0.000000   0.012565  -0.015294  -0.011550  -0.006033
     2  C   -0.001761   0.000000   0.001814   0.019732  -0.011551  -0.006045
     3  C   -0.041882   0.000000  -0.017838   0.058466   0.023377  -0.095013
     4  C   -0.041893   0.000000   0.018219  -0.058336   0.023375  -0.095024
     5  C   -0.041882   0.000000  -0.041438   0.044924  -0.023380  -0.095013
     6  C   -0.041878   0.000000   0.041672  -0.044719  -0.023380  -0.095009
     7  C   -0.001757   0.000000   0.017998  -0.008287   0.011549  -0.006040
     8  C   -0.001757   0.000000  -0.006939   0.018551   0.011537  -0.006040
     9  C   -0.001753   0.000000   0.019808   0.000336  -0.011536  -0.006036
    10  C   -0.001763   0.000000  -0.014287   0.013739  -0.011544  -0.006047
    11  C   -0.041878   0.000000  -0.056837   0.022485   0.023371  -0.095008
    12  C   -0.041886   0.000000   0.056973  -0.022135   0.023364  -0.095017
    13  C   -0.041880   0.000000  -0.060963  -0.004409  -0.023385  -0.095012
    14  C   -0.041888   0.000000   0.060927   0.004781  -0.023370  -0.095018
    15  C   -0.001751   0.000000   0.017706   0.008859   0.011543  -0.006035
    16  C   -0.001759   0.000000  -0.018827   0.006133   0.011546  -0.006042
    17  C   -0.001756   0.000000   0.012092   0.015669  -0.011530  -0.006040
    18  C   -0.001761   0.000000  -0.019616  -0.002638  -0.011534  -0.006044
    19  C   -0.041879   0.000000  -0.053031  -0.030404   0.023378  -0.095010
    20  C   -0.041885   0.000000   0.052845   0.030727   0.023376  -0.095016
    21  C   -0.041883   0.000000  -0.034587  -0.050384  -0.023367  -0.095014
    22  C   -0.041887   0.000000   0.034256   0.050612  -0.023372  -0.095018
    23  C   -0.001751   0.000000   0.004121   0.019382   0.011537  -0.006035
    24  C   -0.001754   0.000000  -0.016542  -0.010914   0.011542  -0.006037
    25  C   -0.001761   0.000000  -0.004726   0.019225  -0.011529  -0.006044
    26  C   -0.001761   0.000000  -0.010181  -0.016966  -0.011531  -0.006045
    27  C   -0.041881   0.000000  -0.009278  -0.060424   0.023384  -0.095013
    28  C   -0.041885   0.000000   0.008935   0.060471   0.023382  -0.095016
    29  C   -0.041882   0.000000   0.017838  -0.058466  -0.023377  -0.095013
    30  C   -0.041893   0.000000  -0.018219   0.058335  -0.023375  -0.095024
    31  C   -0.001750   0.000000  -0.012565   0.015294   0.011550  -0.006033
    32  C   -0.001761   0.000000  -0.001814  -0.019732   0.011551  -0.006045
    33  C   -0.001756   0.000000  -0.017998   0.008287  -0.011549  -0.006040
    34  C   -0.001757   0.000000   0.006939  -0.018551  -0.011537  -0.006040
    35  C   -0.041882   0.000000   0.041438  -0.044924   0.023380  -0.095013
    36  C   -0.041878   0.000000  -0.041672   0.044719   0.023380  -0.095009
    37  C   -0.041878   0.000000   0.056837  -0.022485  -0.023371  -0.095008
    38  C   -0.041885   0.000000  -0.056973   0.022135  -0.023364  -0.095016
    39  C   -0.001753   0.000000  -0.019808  -0.000337   0.011537  -0.006036
    40  C   -0.001763   0.000000   0.014287  -0.013739   0.011544  -0.006047
    41  C   -0.001751   0.000000  -0.017706  -0.008859  -0.011543  -0.006035
    42  C   -0.001759   0.000000   0.018827  -0.006133  -0.011546  -0.006042
    43  C   -0.041880   0.000000   0.060963   0.004409   0.023385  -0.095012
    44  C   -0.041887   0.000000  -0.060927  -0.004781   0.023370  -0.095018
    45  C   -0.041879   0.000000   0.053031   0.030404  -0.023378  -0.095010
    46  C   -0.041885   0.000000  -0.052845  -0.030727  -0.023376  -0.095016
    47  C   -0.001757   0.000000  -0.012092  -0.015668   0.011530  -0.006040
    48  C   -0.001761   0.000000   0.019616   0.002637   0.011534  -0.006045
    49  C   -0.001751   0.000000  -0.004121  -0.019383  -0.011537  -0.006035
    50  C   -0.001754   0.000000   0.016543   0.010914  -0.011542  -0.006037
    51  C   -0.041883   0.000000   0.034587   0.050384   0.023367  -0.095014
    52  C   -0.041887   0.000000  -0.034256  -0.050612   0.023372  -0.095019
    53  C   -0.041881   0.000000   0.009278   0.060424  -0.023384  -0.095013
    54  C   -0.041885   0.000000  -0.008935  -0.060470  -0.023382  -0.095016
    55  C   -0.001761   0.000000   0.004726  -0.019225   0.011529  -0.006044
    56  C   -0.001761   0.000000   0.010181   0.016966   0.011531  -0.006045
    57  H    0.043646   0.000000  -0.007083   0.061123   0.132489   0.101060
    58  H    0.043645   0.000000   0.028565  -0.054502   0.132489   0.101059
    59  H    0.043646   0.000000  -0.032901   0.052003  -0.132488   0.101061
    60  H    0.043647   0.000000   0.049374  -0.036714  -0.132489   0.101062
    61  H    0.043647   0.000000  -0.052218   0.032550   0.132488   0.101061
    62  H    0.043646   0.000000   0.060428  -0.011634   0.132490   0.101061
    63  H    0.043648   0.000000  -0.061168   0.006683  -0.132490   0.101063
    64  H    0.043644   0.000000   0.059487   0.015740  -0.132489   0.101059
    65  H    0.043647   0.000000  -0.058021  -0.020512   0.132485   0.101061
    66  H    0.043647   0.000000   0.046764   0.040001   0.132489   0.101062
    67  H    0.043645   0.000000  -0.043363  -0.043657  -0.132488   0.101061
    68  H    0.043646   0.000000   0.024789   0.056315  -0.132493   0.101061
    69  H    0.043647   0.000000  -0.020131  -0.058145   0.132489   0.101062
    70  H    0.043646   0.000000  -0.002091   0.061496   0.132488   0.101060
    71  H    0.043646   0.000000   0.007083  -0.061123  -0.132489   0.101060
    72  H    0.043645   0.000000  -0.028565   0.054502  -0.132489   0.101059
    73  H    0.043646   0.000000   0.032901  -0.052003   0.132488   0.101061
    74  H    0.043647   0.000000  -0.049374   0.036714   0.132489   0.101062
    75  H    0.043647   0.000000   0.052218  -0.032550  -0.132488   0.101061
    76  H    0.043646   0.000000  -0.060428   0.011634  -0.132490   0.101060
    77  H    0.043648   0.000000   0.061168  -0.006683   0.132490   0.101063
    78  H    0.043644   0.000000  -0.059487  -0.015740   0.132489   0.101059
    79  H    0.043647   0.000000   0.058021   0.020512  -0.132485   0.101061
    80  H    0.043647   0.000000  -0.046764  -0.040001  -0.132489   0.101062
    81  H    0.043645   0.000000   0.043363   0.043657   0.132488   0.101061
    82  H    0.043646   0.000000  -0.024789  -0.056315   0.132493   0.101061
    83  H    0.043647   0.000000   0.020131   0.058145  -0.132489   0.101062
    84  H    0.043646   0.000000   0.002091  -0.061496  -0.132488   0.101060
       Tot   0.000175   0.000000   0.000000   0.000000  -0.000001   0.000175
 Hirshfeld charges with hydrogens summed into heavy atoms:
              Q-H       Q-CM5   
     1  C   -0.001750  -0.006033
     2  C   -0.001761  -0.006045
     3  C    0.001764   0.006047
     4  C    0.001752   0.006035
     5  C    0.001764   0.006048
     6  C    0.001769   0.006053
     7  C   -0.001757  -0.006040
     8  C   -0.001757  -0.006040
     9  C   -0.001753  -0.006036
    10  C   -0.001763  -0.006047
    11  C    0.001769   0.006053
    12  C    0.001760   0.006044
    13  C    0.001768   0.006052
    14  C    0.001757   0.006040
    15  C   -0.001751  -0.006035
    16  C   -0.001759  -0.006042
    17  C   -0.001756  -0.006040
    18  C   -0.001761  -0.006044
    19  C    0.001767   0.006050
    20  C    0.001763   0.006046
    21  C    0.001763   0.006046
    22  C    0.001759   0.006043
    23  C   -0.001751  -0.006035
    24  C   -0.001754  -0.006037
    25  C   -0.001761  -0.006044
    26  C   -0.001761  -0.006045
    27  C    0.001765   0.006049
    28  C    0.001761   0.006045
    29  C    0.001764   0.006048
    30  C    0.001751   0.006035
    31  C   -0.001750  -0.006033
    32  C   -0.001761  -0.006045
    33  C   -0.001756  -0.006040
    34  C   -0.001757  -0.006040
    35  C    0.001764   0.006048
    36  C    0.001769   0.006053
    37  C    0.001769   0.006053
    38  C    0.001761   0.006044
    39  C   -0.001753  -0.006036
    40  C   -0.001763  -0.006047
    41  C   -0.001751  -0.006035
    42  C   -0.001759  -0.006042
    43  C    0.001768   0.006052
    44  C    0.001757   0.006041
    45  C    0.001767   0.006050
    46  C    0.001763   0.006046
    47  C   -0.001757  -0.006040
    48  C   -0.001761  -0.006045
    49  C   -0.001751  -0.006035
    50  C   -0.001754  -0.006037
    51  C    0.001763   0.006046
    52  C    0.001759   0.006042
    53  C    0.001765   0.006049
    54  C    0.001761   0.006045
    55  C   -0.001761  -0.006044
    56  C   -0.001761  -0.006045
 
 EQQ=  0.00000000000     EQD=  0.00000000000     EDD= 0.282502361915E-01
 EQQ+QD+DD= 0.282502361915E-01
 
 1\1\GINC-CU19\SP\RB3LYP\6-311G(d)\C56H28\WANG\08-Jul-2025\0\\# B3LYP/6
 -311G* Pop=Hirshfeld NOSYMM\\From ../../cnt_7_7-2_opt.out\\0,1\C,0,4.3
 48112,2.099528,1.23216\C,0,4.775051,0.714981,1.232141\C,0,4.412206,2.0
 76318,3.666296\C,0,4.81495,0.770227,3.66628\C,0,3.074693,3.785402,0.02
 2975\C,0,4.004167,2.783333,0.022962\C,0,3.006943,3.778513,2.457111\C,0
 ,3.992218,2.716226,2.457099\C,0,1.069891,4.708894,1.2322\C,0,2.418657,
 4.179686,1.232189\C,0,1.127965,4.74448,3.666334\C,0,2.400308,4.245277,
 3.666323\C,0,-1.042139,4.76377,0.022968\C,0,0.320794,4.866147,0.022992
 \C,0,-1.079013,4.70644,2.457108\C,0,0.365785,4.814888,2.457126\C,0,-3.
 014114,3.77205,1.232171\C,0,-1.759374,4.496524,1.232169\C,0,-3.005868,
 3.839841,3.666295\C,0,-1.822202,4.523241,3.66629\C,0,-4.37397,2.155107
 ,0.022989\C,0,-3.604133,3.284445,0.02297\C,0,-4.352169,2.090586,2.4571
 24\C,0,-3.536111,3.287778,2.457108\C,0,-4.828167,-0.004936,1.232196\C,
 0,-4.612247,1.427744,1.232197\C,0,-4.875879,0.043763,3.666331\C,0,-4.6
 72188,1.395276,3.66633\C,0,-4.412204,-2.076318,0.022972\C,0,-4.814949,
 -0.770227,0.022988\C,0,-4.348111,-2.099528,2.457108\C,0,-4.77505,-0.71
 4981,2.457127\C,0,-3.006942,-3.778513,1.232157\C,0,-3.992217,-2.716226
 ,1.232169\C,0,-3.074692,-3.785402,3.666293\C,0,-4.004166,-2.783333,3.6
 66306\C,0,-1.127964,-4.74448,0.022934\C,0,-2.400306,-4.245277,0.022946
 \C,0,-1.06989,-4.708894,2.457068\C,0,-2.418655,-4.179686,2.457079\C,0,
 1.079014,-4.70644,1.23216\C,0,-0.365784,-4.814888,1.232142\C,0,1.04214
 ,-4.76377,3.6663\C,0,-0.320792,-4.866147,3.666276\C,0,3.00587,-3.83984
 ,0.022973\C,0,1.822203,-4.52324,0.022978\C,0,3.014115,-3.772049,2.4570
 97\C,0,1.759376,-4.496524,2.457099\C,0,4.35217,-2.090586,1.232144\C,0,
 3.536112,-3.287778,1.23216\C,0,4.373971,-2.155107,3.666279\C,0,3.60413
 5,-3.284444,3.666298\C,0,4.87588,-0.043762,0.022937\C,0,4.672189,-1.39
 5275,0.022938\C,0,4.828168,0.004937,2.457072\C,0,4.612248,-1.427744,2.
 457071\H,0,4.31712,2.594383,4.614532\H,0,5.02808,0.288532,4.614507\H,0
 ,2.764253,4.210943,-0.925247\H,0,4.405178,2.441844,-0.925275\H,0,0.663
 555,4.993012,4.614572\H,0,2.909825,4.111719,4.614551\H,0,-1.56838,4.78
 6242,-0.925262\H,0,0.837803,4.966917,-0.925236\H,0,-3.489818,3.631854,
 4.614514\H,0,-1.400163,4.838411,4.614514\H,0,-4.71965,1.757664,-0.9252
 32\H,0,-3.360536,3.751432,-0.925274\H,0,-5.014955,-0.464263,4.614563\H
 ,0,-4.655289,1.921727,4.614564\H,0,-4.317119,-2.594382,-0.925264\H,0,-
 5.028079,-0.288532,-0.925239\H,0,-2.764251,-4.210942,4.614515\H,0,-4.4
 05177,-2.441844,4.614543\H,0,-0.663554,-4.993011,-0.925304\H,0,-2.9098
 24,-4.111719,-0.925283\H,0,1.568382,-4.786242,4.61453\H,0,-0.837802,-4
 .966916,4.614504\H,0,3.489819,-3.631854,-0.925246\H,0,1.400164,-4.8384
 11,-0.925246\H,0,4.719651,-1.757663,4.6145\H,0,3.360537,-3.751432,4.61
 4542\H,0,5.014956,0.464263,-0.925295\H,0,4.65529,-1.921727,-0.925296\\
 Version=ES64L-G16RevB.01\HF=-2151.2695337\RMSD=8.279e-09\Dipole=-0.000
 0003,0.0000003,-0.0000044\Quadrupole=-15.5601428,-15.5578623,31.118005
 1,-0.0008098,-0.0009224,0.0003142\PG=CI [X(C56H28)]\\@


 ONE OF THE BENEFITS OF A COLLEGE EDUCATION
 IS TO SHOW THE BOY ITS LITTLE AVAIL 
                                    EMERSON IN 'CULTURE'
 Job cpu time:       0 days  0 hours 46 minutes 30.5 seconds.
 Elapsed time:       0 days  0 hours  2 minutes 36.4 seconds.
 File lengths (MBytes):  RWF=    645 Int=      0 D2E=      0 Chk=     70 Scr=      1
 Normal termination of Gaussian 16 at Tue Jul  8 03:01:22 2025.
