 Entering Gaussian System, Link 0=g16
 Initial command:
 /opt/software/g16/l1.exe "/tmp/cnt_12_6-1_sgp-2869.tmp/Gau-34745.inp" -scrdir="/tmp/cnt_12_6-1_sgp-2869.tmp/"
 Entering Link 1 = /opt/software/g16/l1.exe PID=     34746.
  
 Copyright (c) 1988-2017, Gaussian, Inc.  All Rights Reserved.
  
 This is part of the Gaussian(R) 16 program.  It is based on
 the Gaussian(R) 09 system (copyright 2009, Gaussian, Inc.),
 the Gaussian(R) 03 system (copyright 2003, Gaussian, Inc.),
 the Gaussian(R) 98 system (copyright 1998, Gaussian, Inc.),
 the Gaussian(R) 94 system (copyright 1995, Gaussian, Inc.),
 the Gaussian 92(TM) system (copyright 1992, Gaussian, Inc.),
 the Gaussian 90(TM) system (copyright 1990, Gaussian, Inc.),
 the Gaussian 88(TM) system (copyright 1988, Gaussian, Inc.),
 the Gaussian 86(TM) system (copyright 1986, Carnegie Mellon
 University), and the Gaussian 82(TM) system (copyright 1983,
 Carnegie Mellon University). Gaussian is a federally registered
 trademark of Gaussian, Inc.
  
 This software contains proprietary and confidential information,
 including trade secrets, belonging to Gaussian, Inc.
  
 This software is provided under written license and may be
 used, copied, transmitted, or stored only in accord with that
 written license.
  
 The following legend is applicable only to US Government
 contracts under FAR:
  
                    RESTRICTED RIGHTS LEGEND
  
 Use, reproduction and disclosure by the US Government is
 subject to restrictions as set forth in subparagraphs (a)
 and (c) of the Commercial Computer Software - Restricted
 Rights clause in FAR 52.227-19.
  
 Gaussian, Inc.
 340 Quinnipiac St., Bldg. 40, Wallingford CT 06492
  
  
 ---------------------------------------------------------------
 Warning -- This program may not be used in any manner that
 competes with the business of Gaussian, Inc. or will provide
 assistance to any competitor of Gaussian, Inc.  The licensee
 of this program is prohibited from giving any competitor of
 Gaussian, Inc. access to this program.  By using this program,
 the user acknowledges that Gaussian, Inc. is engaged in the
 business of creating and licensing software in the field of
 computational chemistry and represents and warrants to the
 licensee that it is not a competitor of Gaussian, Inc. and that
 it will not use this program in any manner prohibited above.
 ---------------------------------------------------------------
  

 Cite this work as:
 Gaussian 16, Revision B.01,
 M. J. Frisch, G. W. Trucks, H. B. Schlegel, G. E. Scuseria, 
 M. A. Robb, J. R. Cheeseman, G. Scalmani, V. Barone, 
 G. A. Petersson, H. Nakatsuji, X. Li, M. Caricato, A. V. Marenich, 
 J. Bloino, B. G. Janesko, R. Gomperts, B. Mennucci, H. P. Hratchian, 
 J. V. Ortiz, A. F. Izmaylov, J. L. Sonnenberg, D. Williams-Young, 
 F. Ding, F. Lipparini, F. Egidi, J. Goings, B. Peng, A. Petrone, 
 T. Henderson, D. Ranasinghe, V. G. Zakrzewski, J. Gao, N. Rega, 
 G. Zheng, W. Liang, M. Hada, M. Ehara, K. Toyota, R. Fukuda, 
 J. Hasegawa, M. Ishida, T. Nakajima, Y. Honda, O. Kitao, H. Nakai, 
 T. Vreven, K. Throssell, J. A. Montgomery, Jr., J. E. Peralta, 
 F. Ogliaro, M. J. Bearpark, J. J. Heyd, E. N. Brothers, K. N. Kudin, 
 V. N. Staroverov, T. A. Keith, R. Kobayashi, J. Normand, 
 K. Raghavachari, A. P. Rendell, J. C. Burant, S. S. Iyengar, 
 J. Tomasi, M. Cossi, J. M. Millam, M. Klene, C. Adamo, R. Cammi, 
 J. W. Ochterski, R. L. Martin, K. Morokuma, O. Farkas, 
 J. B. Foresman, and D. J. Fox, Gaussian, Inc., Wallingford CT, 2016.
 
 ******************************************
 Gaussian 16:  ES64L-G16RevB.01 20-Dec-2017
                 8-Jul-2025 
 ******************************************
 %nproc=28
 Will use up to   28 processors via shared memory.
 ------------------------------------
 # B3LYP/6-311G* Pop=Hirshfeld NOSYMM
 ------------------------------------
 1/38=1,172=1/1;
 2/12=2,15=1,17=6,18=5,40=1/2;
 3/5=4,6=6,7=1,11=2,25=1,30=1,74=-5/1,2,3;
 4//1;
 5/5=2,38=5/2;
 6/7=2,8=2,9=2,10=2,28=1,79=1/1;
 99/5=1,9=1/99;
 -----------------------------
 From ../../cnt_12_6-1_opt.out
 -----------------------------
 Symbolic Z-matrix:
 Charge =  0 Multiplicity = 1
 6                     6.38706  -0.0085    0.02028 
 6                     6.28276   1.33569   0.27183 
 6                     3.20013   5.52593   0.01986 
 6                     1.98395   6.10782   0.27151 
 6                    -3.18645   5.53499   0.02029 
 6                    -4.29859   4.77288   0.27201 
 6                    -6.38706   0.0085    0.02028 
 6                    -6.28276  -1.33569   0.27183 
 6                    -3.20013  -5.52593   0.01986 
 6                    -1.98395  -6.10782   0.27151 
 6                     3.18645  -5.53499   0.02029 
 6                     4.29859  -4.77288   0.27201 
 6                     4.94104   3.9448    0.82233 
 6                     3.94804   4.91262   1.07058 
 6                    -0.94632   6.2513    0.82247 
 6                    -2.28103   5.87555   1.07089 
 6                    -5.88776   2.30667   0.82274 
 6                    -6.22951   0.96282   1.071 
 6                    -4.94104  -3.9448    0.82233 
 6                    -3.94804  -4.91262   1.07058 
 6                     0.94632  -6.2513    0.82247 
 6                     2.28103  -5.87555   1.07089 
 6                     5.88776  -2.30667   0.82274 
 6                     6.22951  -0.96282   1.071 
 6                     1.43599   6.15843   1.58873 
 6                     0.00663   6.29868   1.84592 
 6                    -4.61615   4.3233    1.58918 
 6                    -5.45228   3.15552   1.84628 
 6                    -6.05218  -1.8356    1.58896 
 6                    -5.45873  -3.14352   1.84594 
 6                    -1.43599  -6.15843   1.58873 
 6                    -0.00663  -6.29868   1.84592 
 6                     4.61615  -4.3233    1.58918 
 6                     5.45228  -3.15552   1.84628 
 6                     6.05218   1.8356    1.58896 
 6                     5.45873   3.14352   1.84594 
 6                    -2.70559   5.64043   2.41147 
 6                    -3.89565   4.88902   2.66704 
 6                    -6.23804   0.4774    2.41153 
 6                    -6.18213  -0.92894   2.66693 
 6                    -3.53216  -5.16298   2.41113 
 6                    -2.28632  -5.81778   2.66662 
 6                     2.70559  -5.64043   2.41147 
 6                     3.89565  -4.88902   2.66704 
 6                     6.23804  -0.4774    2.41153 
 6                     6.18213   0.92894   2.66693 
 6                     3.53216   5.16298   2.41113 
 6                     2.28632   5.81778   2.66662 
 6                    -5.6256    2.7188    3.2054 
 6                    -6.07204   1.39851   3.47972 
 6                    -5.16731  -3.5122    3.20503 
 6                    -4.24709  -4.55893   3.47933 
 6                     0.45816  -6.23069   3.20508 
 6                     1.82477  -5.95725   3.47955 
 6                     5.6256   -2.7188    3.2054 
 6                     6.07204  -1.39851   3.47972 
 6                     5.16731   3.5122    3.20503 
 6                     4.24709   4.55893   3.47933 
 6                    -0.45816   6.23069   3.20508 
 6                    -1.82477   5.95725   3.47955 
 6                    -6.07602  -1.3849    4.02507 
 6                    -5.62176  -2.70235   4.28958 
 6                    -1.83858  -5.95401   4.02482 
 6                    -0.47053  -6.2193    4.28951 
 6                     4.23729  -4.5692    4.02524 
 6                     5.15111  -3.51714   4.2899 
 6                     6.07602   1.3849    4.02507 
 6                     5.62176   2.70235   4.28958 
 6                     1.83858   5.95401   4.02482 
 6                     0.47053   6.2193    4.28951 
 6                    -4.23729   4.5692    4.02524 
 6                    -5.15111   3.51714   4.2899 
 6                    -3.88837  -4.86448   4.83233 
 6                    -2.70167  -5.61557   5.09735 
 6                     2.26857  -5.79925   4.83261 
 6                     3.51234  -5.14711   5.09774 
 6                     6.15701  -0.935     4.83271 
 6                     6.21417   0.46826   5.09767 
 6                     3.88837   4.86448   4.83233 
 6                     2.70167   5.61557   5.09735 
 6                    -2.26857   5.79925   4.83261 
 6                    -3.51234   5.14711   5.09774 
 6                    -6.15701   0.935     4.83271 
 6                    -6.21417  -0.46826   5.09767 
 6                    -0.00261  -6.23154   5.63649 
 6                     1.3924   -6.06959   5.90162 
 6                     5.39552  -3.11785   5.63685 
 6                     5.95288  -1.82877   5.90184 
 6                     5.39829   3.11382   5.6365 
 6                     4.5606    4.24106   5.90144 
 6                     0.00261   6.23154   5.63649 
 6                    -1.3924    6.06959   5.90162 
 6                    -5.39552   3.11785   5.63685 
 6                    -5.95288   1.82877   5.90184 
 6                    -5.39829  -3.11382   5.6365 
 6                    -4.5606   -4.24106   5.90144 
 6                     3.89205  -4.87342   6.44472 
 6                     4.87299  -3.88362   6.70939 
 6                     6.16707   0.93411   6.44458 
 6                     5.8004    2.27858   6.7091 
 6                     2.27483   5.8078    6.4443 
 6                     0.92714   6.16232   6.70898 
 6                    -3.89205   4.87342   6.44472 
 6                    -4.87299   3.88362   6.70939 
 6                    -6.16707  -0.93411   6.44458 
 6                    -5.8004   -2.27858   6.7091 
 6                    -2.27483  -5.8078    6.4443 
 6                    -0.92714  -6.16232   6.70898 
 6                     6.07719  -1.37423   7.25485 
 6                     6.24786   0.00901   7.52912 
 6                     4.22929   4.57618   7.25444 
 6                     3.11661   5.41549   7.52877 
 6                    -1.84808   5.95009   7.25468 
 6                    -3.1312    5.40605   7.52915 
 6                    -6.07719   1.37423   7.25485 
 6                    -6.24786  -0.00901   7.52912 
 6                    -4.22929  -4.57618   7.25444 
 6                    -3.11661  -5.41549   7.52877 
 6                     1.84808  -5.95009   7.25468 
 6                     3.1312   -5.40605   7.52915 
 6                     5.63128   2.7151    8.06725 
 6                     4.88534   3.90864   8.32263 
 6                     0.4647    6.23408   8.06718 
 6                    -0.94185   6.18456   8.32277 
 6                    -5.16614   3.5188    8.06758 
 6                    -5.82677   2.27604   8.32305 
 6                    -5.63128  -2.7151    8.06725 
 6                    -4.88534  -3.90864   8.32263 
 6                    -0.4647   -6.23408   8.06718 
 6                     0.94185  -6.18456   8.32277 
 6                     5.16614  -3.5188    8.06758 
 6                     5.82677  -2.27604   8.32305 
 6                     2.72739   5.67868   8.88789 
 6                     1.37869   6.1724    9.14503 
 6                    -3.55351   5.20037   8.88831 
 6                    -4.65542   4.27921   9.14549 
 6                    -6.281    -0.47779   8.88822 
 6                    -6.03454  -1.89273   9.14522 
 6                    -2.72739  -5.67868   8.88789 
 6                    -1.37869  -6.1724    9.14503 
 6                     3.55351  -5.20037   8.88831 
 6                     4.65542  -4.27921   9.14549 
 6                     6.281     0.47779   8.88822 
 6                     6.03454   1.89273   9.14522 
 6                    -1.42508   6.13963   9.66336 
 6                    -2.73953   5.69817   9.91177 
 6                    -6.02943   1.83491   9.6636 
 6                    -6.30475   0.4759    9.91182 
 6                    -4.60479  -4.30486   9.66316 
 6                    -3.56541  -5.22266   9.91142 
 6                     1.42508  -6.13963   9.66336 
 6                     2.73953  -5.69817   9.91177 
 6                     6.02943  -1.83491   9.6636 
 6                     6.30475  -0.4759    9.91182 
 6                     4.60479   4.30486   9.66316 
 6                     3.56541   5.22266   9.91142 
 6                    -5.07971   3.92874   10.46269 
 6                    -5.75691   2.76294   10.71434 
 6                    -5.94345  -2.43564   10.46235 
 6                    -5.27248  -3.60506   10.71389 
 6                    -0.8631   -6.36486   10.46223 
 6                     0.4851   -6.36816   10.71397 
 6                     5.07971  -3.92874   10.46269 
 6                     5.75691  -2.76294   10.71434 
 6                     5.94345   2.43564   10.46235 
 6                     5.27248   3.60506   10.71389 
 6                     0.8631    6.36486   10.46223 
 6                    -0.4851    6.36816   10.71397 
 1                     6.49424  -0.3635   -1.00172 
 1                     6.31917   2.02769  -0.56334 
 1                     3.56093   5.44095  -1.00219 
 1                     1.40272   6.48515  -0.56364 
 1                    -2.93264   5.80518  -1.00175 
 1                    -4.91625   4.45853  -0.56309 
 1                    -6.49424   0.3635   -1.00172 
 1                    -6.31917  -2.02769  -0.56334 
 1                    -3.56093  -5.44095  -1.00219 
 1                    -1.40272  -6.48515  -0.56364 
 1                     2.93264  -5.80518  -1.00175 
 1                     4.91625  -4.45853  -0.56309 
 1                     5.16303   3.71358  -0.21445 
 1                    -0.63525   6.32806  -0.21436 
 1                    -5.79869   2.61456  -0.21405 
 1                    -5.16303  -3.71358  -0.21445 
 1                     0.63525  -6.32806  -0.21436 
 1                     5.79869  -2.61456  -0.21405 
 1                    -3.03976   5.5863    10.94859 
 1                    -6.35805   0.15981   10.9486 
 1                    -3.3184   -5.42689   10.94821 
 1                     3.03976  -5.5863    10.94859 
 1                     6.35805  -0.15981   10.9486 
 1                     3.3184    5.42689   10.94821 
 1                    -4.81194   4.56787   11.29786 
 1                    -6.00718   2.4895    11.73638 
 1                    -6.36327  -1.88436   11.29753 
 1                    -5.16101  -3.95871   11.73589 
 1                    -1.55055  -6.45285   11.29732 
 1                     0.84698  -6.44834   11.73602 
 1                     4.81194  -4.56787   11.29786 
 1                     6.00718  -2.4895    11.73638 
 1                     6.36327   1.88436   11.29753 
 1                     5.16101   3.95871   11.73589 
 1                     1.55055   6.45285   11.29732 
 1                    -0.84698   6.44834   11.73602 
 
 Symmetry turned off by external request.
 Stoichiometry    C168H36
 Framework group  C2[X(C168H36)]
 Deg. of freedom   304
 Full point group                 C2      NOp   2
                          Input orientation:                          
 ---------------------------------------------------------------------
 Center     Atomic      Atomic             Coordinates (Angstroms)
 Number     Number       Type             X           Y           Z
 ---------------------------------------------------------------------
      1          6           0        6.387065   -0.008499    0.020276
      2          6           0        6.282763    1.335693    0.271832
      3          6           0        3.200128    5.525930    0.019856
      4          6           0        1.983953    6.107816    0.271511
      5          6           0       -3.186449    5.534994    0.020286
      6          6           0       -4.298590    4.772879    0.272005
      7          6           0       -6.387065    0.008499    0.020276
      8          6           0       -6.282763   -1.335693    0.271832
      9          6           0       -3.200128   -5.525930    0.019856
     10          6           0       -1.983953   -6.107816    0.271511
     11          6           0        3.186449   -5.534994    0.020286
     12          6           0        4.298590   -4.772879    0.272005
     13          6           0        4.941043    3.944803    0.822332
     14          6           0        3.948037    4.912623    1.070580
     15          6           0       -0.946322    6.251303    0.822467
     16          6           0       -2.281028    5.875546    1.070886
     17          6           0       -5.887759    2.306667    0.822738
     18          6           0       -6.229508    0.962815    1.070998
     19          6           0       -4.941043   -3.944803    0.822332
     20          6           0       -3.948037   -4.912623    1.070580
     21          6           0        0.946322   -6.251303    0.822467
     22          6           0        2.281028   -5.875546    1.070886
     23          6           0        5.887759   -2.306667    0.822738
     24          6           0        6.229508   -0.962815    1.070998
     25          6           0        1.435989    6.158429    1.588728
     26          6           0        0.006634    6.298683    1.845921
     27          6           0       -4.616153    4.323302    1.589178
     28          6           0       -5.452280    3.155523    1.846278
     29          6           0       -6.052178   -1.835595    1.588958
     30          6           0       -5.458730   -3.143524    1.845938
     31          6           0       -1.435989   -6.158429    1.588728
     32          6           0       -0.006634   -6.298683    1.845921
     33          6           0        4.616153   -4.323302    1.589178
     34          6           0        5.452280   -3.155523    1.846278
     35          6           0        6.052178    1.835595    1.588958
     36          6           0        5.458730    3.143524    1.845938
     37          6           0       -2.705592    5.640427    2.411469
     38          6           0       -3.895649    4.889020    2.667036
     39          6           0       -6.238041    0.477401    2.411525
     40          6           0       -6.182134   -0.928944    2.666929
     41          6           0       -3.532159   -5.162983    2.411133
     42          6           0       -2.286320   -5.817776    2.666620
     43          6           0        2.705592   -5.640427    2.411469
     44          6           0        3.895649   -4.889020    2.667036
     45          6           0        6.238041   -0.477401    2.411525
     46          6           0        6.182134    0.928944    2.666929
     47          6           0        3.532159    5.162983    2.411133
     48          6           0        2.286320    5.817776    2.666620
     49          6           0       -5.625603    2.718798    3.205401
     50          6           0       -6.072043    1.398509    3.479722
     51          6           0       -5.167310   -3.512196    3.205032
     52          6           0       -4.247094   -4.558935    3.479327
     53          6           0        0.458160   -6.230694    3.205082
     54          6           0        1.824768   -5.957251    3.479548
     55          6           0        5.625603   -2.718798    3.205401
     56          6           0        6.072043   -1.398509    3.479722
     57          6           0        5.167310    3.512196    3.205032
     58          6           0        4.247094    4.558935    3.479327
     59          6           0       -0.458160    6.230694    3.205082
     60          6           0       -1.824768    5.957251    3.479548
     61          6           0       -6.076024   -1.384904    4.025071
     62          6           0       -5.621758   -2.702353    4.289583
     63          6           0       -1.838579   -5.954014    4.024825
     64          6           0       -0.470529   -6.219296    4.289505
     65          6           0        4.237286   -4.569202    4.025242
     66          6           0        5.151108   -3.517137    4.289895
     67          6           0        6.076024    1.384904    4.025071
     68          6           0        5.621758    2.702353    4.289583
     69          6           0        1.838579    5.954014    4.024825
     70          6           0        0.470529    6.219296    4.289505
     71          6           0       -4.237286    4.569202    4.025242
     72          6           0       -5.151108    3.517137    4.289895
     73          6           0       -3.888366   -4.864483    4.832332
     74          6           0       -2.701669   -5.615565    5.097347
     75          6           0        2.268567   -5.799248    4.832605
     76          6           0        3.512338   -5.147111    5.097740
     77          6           0        6.157010   -0.934997    4.832713
     78          6           0        6.214172    0.468259    5.097672
     79          6           0        3.888366    4.864483    4.832332
     80          6           0        2.701669    5.615565    5.097347
     81          6           0       -2.268567    5.799248    4.832605
     82          6           0       -3.512338    5.147111    5.097740
     83          6           0       -6.157010    0.934997    4.832713
     84          6           0       -6.214172   -0.468259    5.097672
     85          6           0       -0.002605   -6.231545    5.636489
     86          6           0        1.392403   -6.069589    5.901615
     87          6           0        5.395524   -3.117846    5.636846
     88          6           0        5.952884   -1.828773    5.901840
     89          6           0        5.398294    3.113819    5.636499
     90          6           0        4.560598    4.241064    5.901438
     91          6           0        0.002605    6.231545    5.636489
     92          6           0       -1.392403    6.069589    5.901615
     93          6           0       -5.395524    3.117846    5.636846
     94          6           0       -5.952884    1.828773    5.901840
     95          6           0       -5.398294   -3.113819    5.636499
     96          6           0       -4.560598   -4.241064    5.901438
     97          6           0        3.892050   -4.873422    6.444715
     98          6           0        4.872993   -3.883616    6.709386
     99          6           0        6.167070    0.934113    6.444576
    100          6           0        5.800402    2.278584    6.709103
    101          6           0        2.274830    5.807799    6.444297
    102          6           0        0.927136    6.162322    6.708977
    103          6           0       -3.892050    4.873422    6.444715
    104          6           0       -4.872993    3.883616    6.709386
    105          6           0       -6.167070   -0.934113    6.444576
    106          6           0       -5.800402   -2.278584    6.709103
    107          6           0       -2.274830   -5.807799    6.444297
    108          6           0       -0.927136   -6.162322    6.708977
    109          6           0        6.077190   -1.374225    7.254849
    110          6           0        6.247859    0.009012    7.529119
    111          6           0        4.229286    4.576181    7.254438
    112          6           0        3.116609    5.415491    7.528770
    113          6           0       -1.848081    5.950092    7.254676
    114          6           0       -3.131203    5.406054    7.529146
    115          6           0       -6.077190    1.374225    7.254849
    116          6           0       -6.247859   -0.009012    7.529119
    117          6           0       -4.229286   -4.576181    7.254438
    118          6           0       -3.116609   -5.415491    7.528770
    119          6           0        1.848081   -5.950092    7.254676
    120          6           0        3.131203   -5.406054    7.529146
    121          6           0        5.631282    2.715095    8.067251
    122          6           0        4.885336    3.908638    8.322627
    123          6           0        0.464704    6.234079    8.067177
    124          6           0       -0.941852    6.184555    8.322769
    125          6           0       -5.166137    3.518801    8.067585
    126          6           0       -5.826769    2.276044    8.323054
    127          6           0       -5.631282   -2.715095    8.067251
    128          6           0       -4.885336   -3.908638    8.322627
    129          6           0       -0.464704   -6.234079    8.067177
    130          6           0        0.941852   -6.184555    8.322769
    131          6           0        5.166137   -3.518801    8.067585
    132          6           0        5.826769   -2.276044    8.323054
    133          6           0        2.727386    5.678679    8.887888
    134          6           0        1.378691    6.172400    9.145027
    135          6           0       -3.553513    5.200370    8.888311
    136          6           0       -4.655418    4.279211    9.145487
    137          6           0       -6.281000   -0.477787    8.888221
    138          6           0       -6.034542   -1.892730    9.145217
    139          6           0       -2.727386   -5.678679    8.887888
    140          6           0       -1.378691   -6.172400    9.145027
    141          6           0        3.553513   -5.200370    8.888311
    142          6           0        4.655418   -4.279211    9.145487
    143          6           0        6.281000    0.477787    8.888221
    144          6           0        6.034542    1.892730    9.145217
    145          6           0       -1.425081    6.139630    9.663359
    146          6           0       -2.739526    5.698166    9.911769
    147          6           0       -6.029429    1.834912    9.663600
    148          6           0       -6.304750    0.475895    9.911822
    149          6           0       -4.604790   -4.304856    9.663157
    150          6           0       -3.565414   -5.222655    9.911420
    151          6           0        1.425081   -6.139630    9.663359
    152          6           0        2.739526   -5.698166    9.911769
    153          6           0        6.029429   -1.834912    9.663600
    154          6           0        6.304750   -0.475895    9.911822
    155          6           0        4.604790    4.304856    9.663157
    156          6           0        3.565414    5.222655    9.911420
    157          6           0       -5.079713    3.928739   10.462689
    158          6           0       -5.756911    2.762942   10.714335
    159          6           0       -5.943452   -2.435644   10.462346
    160          6           0       -5.272484   -3.605062   10.713894
    161          6           0       -0.863096   -6.364857   10.462225
    162          6           0        0.485101   -6.368161   10.713968
    163          6           0        5.079713   -3.928739   10.462689
    164          6           0        5.756911   -2.762942   10.714335
    165          6           0        5.943452    2.435644   10.462346
    166          6           0        5.272484    3.605062   10.713894
    167          6           0        0.863096    6.364857   10.462225
    168          6           0       -0.485101    6.368161   10.713968
    169          1           0        6.494242   -0.363499   -1.001717
    170          1           0        6.319170    2.027692   -0.563335
    171          1           0        3.560931    5.440945   -1.002190
    172          1           0        1.402719    6.485151   -0.563639
    173          1           0       -2.932641    5.805180   -1.001752
    174          1           0       -4.916251    4.458532   -0.563085
    175          1           0       -6.494242    0.363499   -1.001717
    176          1           0       -6.319170   -2.027692   -0.563335
    177          1           0       -3.560931   -5.440945   -1.002190
    178          1           0       -1.402719   -6.485151   -0.563639
    179          1           0        2.932641   -5.805180   -1.001752
    180          1           0        4.916251   -4.458532   -0.563085
    181          1           0        5.163026    3.713575   -0.214450
    182          1           0       -0.635248    6.328059   -0.214355
    183          1           0       -5.798693    2.614564   -0.214045
    184          1           0       -5.163026   -3.713575   -0.214450
    185          1           0        0.635248   -6.328059   -0.214355
    186          1           0        5.798693   -2.614564   -0.214045
    187          1           0       -3.039764    5.586300   10.948591
    188          1           0       -6.358052    0.159812   10.948601
    189          1           0       -3.318404   -5.426885   10.948208
    190          1           0        3.039764   -5.586300   10.948591
    191          1           0        6.358052   -0.159812   10.948601
    192          1           0        3.318404    5.426885   10.948208
    193          1           0       -4.811942    4.567866   11.297855
    194          1           0       -6.007185    2.489500   11.736379
    195          1           0       -6.363270   -1.884362   11.297532
    196          1           0       -5.161006   -3.958713   11.735894
    197          1           0       -1.550548   -6.452850   11.297317
    198          1           0        0.846984   -6.448344   11.736021
    199          1           0        4.811942   -4.567866   11.297855
    200          1           0        6.007185   -2.489500   11.736379
    201          1           0        6.363270    1.884362   11.297532
    202          1           0        5.161006    3.958713   11.735894
    203          1           0        1.550548    6.452850   11.297317
    204          1           0       -0.846984    6.448344   11.736021
 ---------------------------------------------------------------------
 Rotational constants (GHZ):           0.0080013           0.0080007           0.0062283
 Standard basis: 6-311G(d) (5D, 7F)
  3132 basis functions,  5556 primitive gaussians,  3300 cartesian basis functions
   522 alpha electrons      522 beta electrons
       nuclear repulsion energy     38991.5953237942 Hartrees.
 NAtoms=  204 NActive=  204 NUniq=  204 SFac= 1.00D+00 NAtFMM=   60 NAOKFM=T Big=T
 Integral buffers will be    131072 words long.
 Raffenetti 2 integral format.
 Two-electron integral symmetry is turned off.
 One-electron integrals computed using PRISM.
 NBasis=  3132 RedAO= T EigKep=  4.59D-06  NBF=  3132
 NBsUse=  3132 1.00D-06 EigRej= -1.00D+00 NBFU=  3132
 ExpMin= 1.03D-01 ExpMax= 4.56D+03 ExpMxC= 6.82D+02 IAcc=3 IRadAn=         5 AccDes= 0.00D+00
 Harris functional with IExCor=  402 and IRadAn=       5 diagonalized for initial guess.
 HarFok:  IExCor=  402 AccDes= 0.00D+00 IRadAn=         5 IDoV= 1 UseB2=F ITyADJ=14
 ICtDFT=  3500011 ScaDFX=  1.000000  1.000000  1.000000  1.000000
 FoFCou: FMM=F IPFlag=           0 FMFlag=      100000 FMFlg1=        2001
         NFxFlg=           0 DoJE=T BraDBF=F KetDBF=T FulRan=T
         wScrn=  0.000000 ICntrl=       500 IOpCl=  0 I1Cent=   200000004 NGrid=           0
         NMat0=    1 NMatS0=      1 NMatT0=    0 NMatD0=    1 NMtDS0=    0 NMtDT0=    0
 Symmetry not used in FoFCou.
 Requested convergence on RMS density matrix=1.00D-08 within 128 cycles.
 Requested convergence on MAX density matrix=1.00D-06.
 Requested convergence on             energy=1.00D-06.
 No special actions if energy rises.
 Integral accuracy reduced to 1.0D-05 until final iterations.
 Problem detected with inexpensive integrals.
 Switching to full accuracy and repeating last cycle.
 SCF Done:  E(RB3LYP) =  -6425.71092721     A.U. after   14 cycles
            NFock= 14  Conv=0.83D-08     -V/T= 2.0043
 Hyperfine terms turned off by default for NAtoms > 100.

 **********************************************************************

            Population analysis using the SCF Density.

 **********************************************************************

 Alpha  occ. eigenvalues --  -10.20350 -10.20350 -10.20350 -10.20350 -10.20350
 Alpha  occ. eigenvalues --  -10.20350 -10.20350 -10.20350 -10.20350 -10.20350
 Alpha  occ. eigenvalues --  -10.20350 -10.20350 -10.20182 -10.20182 -10.20182
 Alpha  occ. eigenvalues --  -10.20182 -10.20182 -10.20182 -10.20182 -10.20182
 Alpha  occ. eigenvalues --  -10.20182 -10.20182 -10.20182 -10.20182 -10.20057
 Alpha  occ. eigenvalues --  -10.20057 -10.20057 -10.20057 -10.20057 -10.20057
 Alpha  occ. eigenvalues --  -10.20056 -10.20056 -10.20056 -10.20056 -10.20056
 Alpha  occ. eigenvalues --  -10.20056 -10.20035 -10.20035 -10.20035 -10.20035
 Alpha  occ. eigenvalues --  -10.20035 -10.20035 -10.20033 -10.20032 -10.20032
 Alpha  occ. eigenvalues --  -10.20031 -10.20031 -10.20030 -10.20016 -10.20015
 Alpha  occ. eigenvalues --  -10.20015 -10.20014 -10.20014 -10.20014 -10.20014
 Alpha  occ. eigenvalues --  -10.20014 -10.20014 -10.20012 -10.20012 -10.20011
 Alpha  occ. eigenvalues --  -10.20010 -10.20009 -10.20009 -10.20009 -10.20009
 Alpha  occ. eigenvalues --  -10.20009 -10.20000 -10.20000 -10.20000 -10.20000
 Alpha  occ. eigenvalues --  -10.20000 -10.20000 -10.19978 -10.19978 -10.19978
 Alpha  occ. eigenvalues --  -10.19977 -10.19977 -10.19977 -10.19975 -10.19974
 Alpha  occ. eigenvalues --  -10.19974 -10.19973 -10.19973 -10.19972 -10.19965
 Alpha  occ. eigenvalues --  -10.19963 -10.19963 -10.19959 -10.19959 -10.19957
 Alpha  occ. eigenvalues --  -10.19941 -10.19940 -10.19939 -10.19936 -10.19936
 Alpha  occ. eigenvalues --  -10.19935 -10.19935 -10.19935 -10.19935 -10.19934
 Alpha  occ. eigenvalues --  -10.19934 -10.19934 -10.19923 -10.19923 -10.19922
 Alpha  occ. eigenvalues --  -10.19921 -10.19921 -10.19921 -10.19819 -10.19819
 Alpha  occ. eigenvalues --  -10.19819 -10.19819 -10.19819 -10.19819 -10.19818
 Alpha  occ. eigenvalues --  -10.19818 -10.19818 -10.19818 -10.19818 -10.19818
 Alpha  occ. eigenvalues --  -10.19773 -10.19773 -10.19773 -10.19773 -10.19773
 Alpha  occ. eigenvalues --  -10.19773 -10.19773 -10.19773 -10.19773 -10.19773
 Alpha  occ. eigenvalues --  -10.19773 -10.19773 -10.18967 -10.18967 -10.18967
 Alpha  occ. eigenvalues --  -10.18967 -10.18967 -10.18967 -10.18967 -10.18967
 Alpha  occ. eigenvalues --  -10.18966 -10.18966 -10.18966 -10.18966 -10.18962
 Alpha  occ. eigenvalues --  -10.18962 -10.18962 -10.18962 -10.18962 -10.18962
 Alpha  occ. eigenvalues --  -10.18962 -10.18962 -10.18962 -10.18962 -10.18962
 Alpha  occ. eigenvalues --  -10.18961 -10.18903 -10.18903 -10.18903 -10.18903
 Alpha  occ. eigenvalues --  -10.18903 -10.18903 -10.18903 -10.18903 -10.18903
 Alpha  occ. eigenvalues --  -10.18903 -10.18903 -10.18903  -0.93832  -0.93550
 Alpha  occ. eigenvalues --   -0.93550  -0.92709  -0.92709  -0.91568  -0.91377
 Alpha  occ. eigenvalues --   -0.91297  -0.91297  -0.91259  -0.90504  -0.90503
 Alpha  occ. eigenvalues --   -0.89342  -0.89342  -0.89297  -0.88944  -0.88282
 Alpha  occ. eigenvalues --   -0.88049  -0.88048  -0.87651  -0.87651  -0.86890
 Alpha  occ. eigenvalues --   -0.86890  -0.86665  -0.86665  -0.85976  -0.85635
 Alpha  occ. eigenvalues --   -0.84692  -0.84692  -0.84264  -0.84258  -0.84258
 Alpha  occ. eigenvalues --   -0.83994  -0.83729  -0.83729  -0.83442  -0.82222
 Alpha  occ. eigenvalues --   -0.82222  -0.81906  -0.81839  -0.81409  -0.81225
 Alpha  occ. eigenvalues --   -0.81225  -0.81166  -0.80447  -0.80447  -0.79878
 Alpha  occ. eigenvalues --   -0.79878  -0.79212  -0.79212  -0.78728  -0.78577
 Alpha  occ. eigenvalues --   -0.78496  -0.78138  -0.78138  -0.77079  -0.77079
 Alpha  occ. eigenvalues --   -0.76700  -0.76700  -0.76579  -0.76429  -0.76429
 Alpha  occ. eigenvalues --   -0.75913  -0.75567  -0.75567  -0.75223  -0.75223
 Alpha  occ. eigenvalues --   -0.74893  -0.74663  -0.74663  -0.74218  -0.74218
 Alpha  occ. eigenvalues --   -0.73862  -0.73845  -0.73713  -0.72648  -0.72596
 Alpha  occ. eigenvalues --   -0.72596  -0.71887  -0.71887  -0.71456  -0.70034
 Alpha  occ. eigenvalues --   -0.70034  -0.69806  -0.68744  -0.67501  -0.67429
 Alpha  occ. eigenvalues --   -0.67429  -0.67120  -0.66891  -0.66891  -0.66773
 Alpha  occ. eigenvalues --   -0.66546  -0.66545  -0.66404  -0.66404  -0.65935
 Alpha  occ. eigenvalues --   -0.65390  -0.65390  -0.65354  -0.65354  -0.65257
 Alpha  occ. eigenvalues --   -0.64756  -0.64717  -0.64120  -0.64120  -0.63025
 Alpha  occ. eigenvalues --   -0.63025  -0.62955  -0.62864  -0.62864  -0.62034
 Alpha  occ. eigenvalues --   -0.62034  -0.61562  -0.61562  -0.61511  -0.60570
 Alpha  occ. eigenvalues --   -0.60569  -0.60188  -0.60188  -0.59835  -0.59791
 Alpha  occ. eigenvalues --   -0.59553  -0.58992  -0.58992  -0.58021  -0.57765
 Alpha  occ. eigenvalues --   -0.57765  -0.57218  -0.57218  -0.56727  -0.56727
 Alpha  occ. eigenvalues --   -0.56653  -0.56625  -0.55805  -0.55683  -0.55683
 Alpha  occ. eigenvalues --   -0.55390  -0.54759  -0.54439  -0.54439  -0.54241
 Alpha  occ. eigenvalues --   -0.54082  -0.54082  -0.54056  -0.52747  -0.52585
 Alpha  occ. eigenvalues --   -0.52585  -0.52567  -0.52567  -0.52495  -0.52479
 Alpha  occ. eigenvalues --   -0.52479  -0.52459  -0.52203  -0.51947  -0.51947
 Alpha  occ. eigenvalues --   -0.51221  -0.51059  -0.51058  -0.50455  -0.49985
 Alpha  occ. eigenvalues --   -0.49985  -0.49802  -0.49659  -0.49402  -0.49402
 Alpha  occ. eigenvalues --   -0.48980  -0.48980  -0.48327  -0.48327  -0.48036
 Alpha  occ. eigenvalues --   -0.48036  -0.47901  -0.47858  -0.47858  -0.47255
 Alpha  occ. eigenvalues --   -0.47255  -0.47222  -0.47222  -0.46939  -0.46791
 Alpha  occ. eigenvalues --   -0.46316  -0.46316  -0.46274  -0.46003  -0.45985
 Alpha  occ. eigenvalues --   -0.45934  -0.45934  -0.45865  -0.45837  -0.45837
 Alpha  occ. eigenvalues --   -0.45795  -0.45795  -0.45240  -0.45004  -0.45004
 Alpha  occ. eigenvalues --   -0.44997  -0.44923  -0.44906  -0.44906  -0.44424
 Alpha  occ. eigenvalues --   -0.44424  -0.44042  -0.44042  -0.43834  -0.43814
 Alpha  occ. eigenvalues --   -0.43814  -0.43757  -0.43757  -0.43714  -0.43540
 Alpha  occ. eigenvalues --   -0.43499  -0.43386  -0.43386  -0.43301  -0.43301
 Alpha  occ. eigenvalues --   -0.43121  -0.43110  -0.42802  -0.42776  -0.42775
 Alpha  occ. eigenvalues --   -0.42708  -0.42708  -0.42455  -0.42271  -0.42271
 Alpha  occ. eigenvalues --   -0.42265  -0.42102  -0.42102  -0.42037  -0.42032
 Alpha  occ. eigenvalues --   -0.42032  -0.41979  -0.41979  -0.41809  -0.41125
 Alpha  occ. eigenvalues --   -0.41021  -0.40906  -0.40823  -0.40823  -0.40752
 Alpha  occ. eigenvalues --   -0.40750  -0.40750  -0.40579  -0.40408  -0.40408
 Alpha  occ. eigenvalues --   -0.40274  -0.40068  -0.40068  -0.39970  -0.39969
 Alpha  occ. eigenvalues --   -0.39612  -0.39415  -0.39414  -0.39246  -0.39133
 Alpha  occ. eigenvalues --   -0.39133  -0.38352  -0.38274  -0.38028  -0.38028
 Alpha  occ. eigenvalues --   -0.38027  -0.37954  -0.37953  -0.37442  -0.37442
 Alpha  occ. eigenvalues --   -0.37252  -0.37252  -0.37225  -0.37225  -0.36793
 Alpha  occ. eigenvalues --   -0.36624  -0.36582  -0.36582  -0.36363  -0.36176
 Alpha  occ. eigenvalues --   -0.36176  -0.36062  -0.35279  -0.35279  -0.35030
 Alpha  occ. eigenvalues --   -0.34969  -0.34969  -0.34855  -0.34850  -0.34835
 Alpha  occ. eigenvalues --   -0.34835  -0.34763  -0.34510  -0.34510  -0.34369
 Alpha  occ. eigenvalues --   -0.34369  -0.34306  -0.34186  -0.34186  -0.33907
 Alpha  occ. eigenvalues --   -0.33547  -0.32992  -0.32991  -0.32698  -0.32698
 Alpha  occ. eigenvalues --   -0.32244  -0.32244  -0.31863  -0.31639  -0.31639
 Alpha  occ. eigenvalues --   -0.31632  -0.31477  -0.31364  -0.31332  -0.31125
 Alpha  occ. eigenvalues --   -0.31125  -0.31106  -0.29926  -0.29926  -0.29871
 Alpha  occ. eigenvalues --   -0.29871  -0.29070  -0.29070  -0.28725  -0.28124
 Alpha  occ. eigenvalues --   -0.27909  -0.27540  -0.27540  -0.27484  -0.27484
 Alpha  occ. eigenvalues --   -0.27412  -0.26453  -0.26453  -0.26060  -0.26060
 Alpha  occ. eigenvalues --   -0.25479  -0.25177  -0.25177  -0.25018  -0.24668
 Alpha  occ. eigenvalues --   -0.24668  -0.24491  -0.24491  -0.24078  -0.23820
 Alpha  occ. eigenvalues --   -0.23805  -0.23805  -0.23261  -0.21802  -0.21579
 Alpha  occ. eigenvalues --   -0.21579  -0.20789  -0.20789  -0.20438  -0.17844
 Alpha  occ. eigenvalues --   -0.17844  -0.16164
 Alpha virt. eigenvalues --   -0.12431  -0.10584  -0.10584  -0.07837  -0.07837
 Alpha virt. eigenvalues --   -0.07830  -0.07137  -0.07137  -0.06908  -0.05996
 Alpha virt. eigenvalues --   -0.05771  -0.05360  -0.05194  -0.05194  -0.04997
 Alpha virt. eigenvalues --   -0.04997  -0.04777  -0.04599  -0.04599  -0.04258
 Alpha virt. eigenvalues --   -0.04258  -0.03995  -0.03300  -0.03299  -0.03146
 Alpha virt. eigenvalues --   -0.03146  -0.03074  -0.02467  -0.02466  -0.01002
 Alpha virt. eigenvalues --   -0.01001  -0.00776  -0.00599   0.00118   0.00238
 Alpha virt. eigenvalues --    0.00238   0.00651   0.00651   0.01662   0.01662
 Alpha virt. eigenvalues --    0.02002   0.02668   0.02668   0.03220   0.03338
 Alpha virt. eigenvalues --    0.03654   0.03903   0.03903   0.03970   0.03987
 Alpha virt. eigenvalues --    0.03987   0.04022   0.04023   0.04120   0.04708
 Alpha virt. eigenvalues --    0.04708   0.05038   0.05039   0.05749   0.05923
 Alpha virt. eigenvalues --    0.06262   0.06365   0.06394   0.06667   0.06667
 Alpha virt. eigenvalues --    0.06686   0.06686   0.07029   0.07453   0.07885
 Alpha virt. eigenvalues --    0.07885   0.08061   0.08061   0.08314   0.08314
 Alpha virt. eigenvalues --    0.09310   0.09752   0.09902   0.09902   0.10137
 Alpha virt. eigenvalues --    0.10137   0.11037   0.11038   0.11311   0.11338
 Alpha virt. eigenvalues --    0.11932   0.11932   0.12540   0.12541   0.12858
 Alpha virt. eigenvalues --    0.12859   0.13275   0.13761   0.13798   0.14169
 Alpha virt. eigenvalues --    0.14938   0.14939   0.15091   0.15092   0.15097
 Alpha virt. eigenvalues --    0.15494   0.15495   0.15595   0.15596   0.16844
 Alpha virt. eigenvalues --    0.17051   0.17051   0.17124   0.17126   0.17155
 Alpha virt. eigenvalues --    0.17342   0.18081   0.18087   0.18087   0.18234
 Alpha virt. eigenvalues --    0.18320   0.18629   0.18630   0.18766   0.18895
 Alpha virt. eigenvalues --    0.18895   0.18939   0.19038   0.19039   0.19077
 Alpha virt. eigenvalues --    0.19077   0.19835   0.19836   0.20277   0.20277
 Alpha virt. eigenvalues --    0.20687   0.20718   0.20968   0.20969   0.20969
 Alpha virt. eigenvalues --    0.21083   0.21083   0.21195   0.21195   0.21196
 Alpha virt. eigenvalues --    0.21687   0.21687   0.21861   0.22080   0.22081
 Alpha virt. eigenvalues --    0.22217   0.22254   0.22497   0.22497   0.22505
 Alpha virt. eigenvalues --    0.22629   0.22630   0.22907   0.23057   0.23057
 Alpha virt. eigenvalues --    0.23075   0.23795   0.23796   0.23799   0.23800
 Alpha virt. eigenvalues --    0.24002   0.24032   0.24033   0.24144   0.24329
 Alpha virt. eigenvalues --    0.24420   0.24421   0.24776   0.24955   0.24956
 Alpha virt. eigenvalues --    0.25045   0.25281   0.25282   0.25693   0.25762
 Alpha virt. eigenvalues --    0.25894   0.25955   0.25955   0.26396   0.26396
 Alpha virt. eigenvalues --    0.26694   0.26694   0.27146   0.27426   0.27427
 Alpha virt. eigenvalues --    0.27480   0.27664   0.27664   0.27682   0.27808
 Alpha virt. eigenvalues --    0.27926   0.28579   0.28580   0.28842   0.28843
 Alpha virt. eigenvalues --    0.29018   0.29316   0.29316   0.29457   0.29458
 Alpha virt. eigenvalues --    0.29637   0.29771   0.29772   0.29787   0.29823
 Alpha virt. eigenvalues --    0.30481   0.30481   0.30568   0.30638   0.30815
 Alpha virt. eigenvalues --    0.30815   0.31220   0.31220   0.31489   0.31489
 Alpha virt. eigenvalues --    0.31813   0.32175   0.32245   0.32245   0.32752
 Alpha virt. eigenvalues --    0.33375   0.33419   0.33419   0.33600   0.33600
 Alpha virt. eigenvalues --    0.33684   0.33685   0.33886   0.33914   0.34290
 Alpha virt. eigenvalues --    0.34425   0.34425   0.34435   0.34737   0.34757
 Alpha virt. eigenvalues --    0.34757   0.34994   0.34995   0.35026   0.35026
 Alpha virt. eigenvalues --    0.35293   0.35593   0.35593   0.35798   0.35798
 Alpha virt. eigenvalues --    0.35889   0.35889   0.36174   0.36447   0.36447
 Alpha virt. eigenvalues --    0.36603   0.36645   0.36819   0.36819   0.36897
 Alpha virt. eigenvalues --    0.37024   0.37024   0.37030   0.37095   0.37095
 Alpha virt. eigenvalues --    0.37514   0.37539   0.37567   0.37655   0.37655
 Alpha virt. eigenvalues --    0.37854   0.37854   0.37931   0.37931   0.37959
 Alpha virt. eigenvalues --    0.38039   0.38039   0.38103   0.38103   0.38285
 Alpha virt. eigenvalues --    0.38409   0.38409   0.38442   0.38660   0.38660
 Alpha virt. eigenvalues --    0.38781   0.38888   0.38889   0.38903   0.38903
 Alpha virt. eigenvalues --    0.39023   0.39102   0.39102   0.39253   0.39254
 Alpha virt. eigenvalues --    0.39281   0.39444   0.39444   0.39469   0.39580
 Alpha virt. eigenvalues --    0.39580   0.39694   0.39695   0.39758   0.39945
 Alpha virt. eigenvalues --    0.39945   0.40005   0.40120   0.40126   0.40127
 Alpha virt. eigenvalues --    0.40237   0.40253   0.40258   0.40258   0.40439
 Alpha virt. eigenvalues --    0.40535   0.40577   0.40577   0.40777   0.40945
 Alpha virt. eigenvalues --    0.41119   0.41119   0.41174   0.41174   0.41248
 Alpha virt. eigenvalues --    0.41248   0.41274   0.41588   0.41613   0.41613
 Alpha virt. eigenvalues --    0.41697   0.41698   0.41781   0.41781   0.41852
 Alpha virt. eigenvalues --    0.41853   0.41897   0.41897   0.42026   0.42027
 Alpha virt. eigenvalues --    0.42034   0.42130   0.42130   0.42163   0.42342
 Alpha virt. eigenvalues --    0.42342   0.42396   0.42416   0.42416   0.42508
 Alpha virt. eigenvalues --    0.42630   0.42631   0.42750   0.42750   0.42860
 Alpha virt. eigenvalues --    0.43133   0.43214   0.43214   0.43293   0.43334
 Alpha virt. eigenvalues --    0.43366   0.43366   0.43500   0.43500   0.43592
 Alpha virt. eigenvalues --    0.43592   0.43642   0.43656   0.43657   0.43657
 Alpha virt. eigenvalues --    0.44090   0.44090   0.44110   0.44112   0.44113
 Alpha virt. eigenvalues --    0.44157   0.44484   0.44533   0.44533   0.44576
 Alpha virt. eigenvalues --    0.44576   0.44577   0.44742   0.44835   0.44835
 Alpha virt. eigenvalues --    0.44839   0.44860   0.44860   0.45115   0.45165
 Alpha virt. eigenvalues --    0.45165   0.45279   0.45313   0.45497   0.45497
 Alpha virt. eigenvalues --    0.45605   0.45605   0.45667   0.45671   0.45682
 Alpha virt. eigenvalues --    0.45682   0.45688   0.45752   0.45752   0.45842
 Alpha virt. eigenvalues --    0.45978   0.46127   0.46127   0.46333   0.46333
 Alpha virt. eigenvalues --    0.46378   0.46378   0.46407   0.46438   0.46483
 Alpha virt. eigenvalues --    0.46484   0.46573   0.46908   0.46924   0.46924
 Alpha virt. eigenvalues --    0.46941   0.46941   0.47063   0.47063   0.47085
 Alpha virt. eigenvalues --    0.47161   0.47172   0.47172   0.47411   0.47412
 Alpha virt. eigenvalues --    0.47462   0.47463   0.47542   0.47543   0.47593
 Alpha virt. eigenvalues --    0.47594   0.47634   0.47661   0.47690   0.47825
 Alpha virt. eigenvalues --    0.47930   0.48020   0.48020   0.48230   0.48230
 Alpha virt. eigenvalues --    0.48301   0.48302   0.48630   0.48630   0.48677
 Alpha virt. eigenvalues --    0.48856   0.49005   0.49154   0.49154   0.49225
 Alpha virt. eigenvalues --    0.49277   0.49277   0.49637   0.49637   0.49642
 Alpha virt. eigenvalues --    0.49725   0.49966   0.49966   0.50048   0.50094
 Alpha virt. eigenvalues --    0.50102   0.50102   0.50392   0.50653   0.50764
 Alpha virt. eigenvalues --    0.50764   0.50768   0.50768   0.50876   0.50876
 Alpha virt. eigenvalues --    0.51173   0.51297   0.51405   0.51560   0.51560
 Alpha virt. eigenvalues --    0.51894   0.51895   0.52099   0.52114   0.52114
 Alpha virt. eigenvalues --    0.52262   0.52559   0.53006   0.53043   0.53044
 Alpha virt. eigenvalues --    0.53214   0.53436   0.53437   0.53680   0.53916
 Alpha virt. eigenvalues --    0.53917   0.53963   0.54533   0.54534   0.54590
 Alpha virt. eigenvalues --    0.54591   0.54683   0.54727   0.54728   0.55121
 Alpha virt. eigenvalues --    0.55122   0.55131   0.55132   0.55208   0.55560
 Alpha virt. eigenvalues --    0.55561   0.55653   0.55761   0.55761   0.55784
 Alpha virt. eigenvalues --    0.56539   0.57213   0.57213   0.57412   0.57466
 Alpha virt. eigenvalues --    0.57466   0.57519   0.57519   0.57592   0.57672
 Alpha virt. eigenvalues --    0.57672   0.57723   0.57723   0.57909   0.58284
 Alpha virt. eigenvalues --    0.58364   0.58364   0.58699   0.58699   0.58718
 Alpha virt. eigenvalues --    0.58739   0.59016   0.59018   0.59019   0.59031
 Alpha virt. eigenvalues --    0.59032   0.59180   0.59307   0.59308   0.59580
 Alpha virt. eigenvalues --    0.59662   0.59662   0.59756   0.59756   0.60049
 Alpha virt. eigenvalues --    0.60050   0.60178   0.60320   0.60532   0.60532
 Alpha virt. eigenvalues --    0.60567   0.60567   0.60774   0.61439   0.61454
 Alpha virt. eigenvalues --    0.61683   0.61684   0.62139   0.62231   0.62232
 Alpha virt. eigenvalues --    0.62257   0.62258   0.62372   0.62372   0.62441
 Alpha virt. eigenvalues --    0.62670   0.62758   0.62821   0.63042   0.63067
 Alpha virt. eigenvalues --    0.63068   0.63352   0.63395   0.63395   0.63794
 Alpha virt. eigenvalues --    0.63819   0.63904   0.63957   0.63957   0.64153
 Alpha virt. eigenvalues --    0.64221   0.64221   0.64329   0.64330   0.65026
 Alpha virt. eigenvalues --    0.65026   0.65162   0.65163   0.65526   0.65605
 Alpha virt. eigenvalues --    0.65605   0.66276   0.66437   0.66437   0.66509
 Alpha virt. eigenvalues --    0.66509   0.66904   0.66919   0.66920   0.66990
 Alpha virt. eigenvalues --    0.67057   0.67057   0.67264   0.67264   0.67425
 Alpha virt. eigenvalues --    0.67896   0.67896   0.68172   0.68231   0.68231
 Alpha virt. eigenvalues --    0.68406   0.68407   0.68407   0.68845   0.68939
 Alpha virt. eigenvalues --    0.68941   0.69371   0.69503   0.69575   0.69655
 Alpha virt. eigenvalues --    0.69820   0.69820   0.70064   0.70065   0.70112
 Alpha virt. eigenvalues --    0.70113   0.70425   0.70909   0.70916   0.70918
 Alpha virt. eigenvalues --    0.70954   0.70954   0.71379   0.71498   0.71499
 Alpha virt. eigenvalues --    0.71630   0.72057   0.72058   0.72203   0.72203
 Alpha virt. eigenvalues --    0.72392   0.72554   0.72892   0.73000   0.73004
 Alpha virt. eigenvalues --    0.73326   0.73328   0.73416   0.73517   0.73742
 Alpha virt. eigenvalues --    0.73743   0.73931   0.74084   0.74099   0.74101
 Alpha virt. eigenvalues --    0.74340   0.74748   0.74749   0.75042   0.75051
 Alpha virt. eigenvalues --    0.75053   0.75182   0.75192   0.75192   0.75258
 Alpha virt. eigenvalues --    0.75812   0.75814   0.75954   0.76080   0.76082
 Alpha virt. eigenvalues --    0.76176   0.76177   0.76253   0.76721   0.76964
 Alpha virt. eigenvalues --    0.76965   0.77283   0.77283   0.77318   0.77318
 Alpha virt. eigenvalues --    0.77330   0.77483   0.77484   0.77626   0.78093
 Alpha virt. eigenvalues --    0.78093   0.78201   0.78202   0.78280   0.78419
 Alpha virt. eigenvalues --    0.78553   0.78756   0.78757   0.79135   0.79137
 Alpha virt. eigenvalues --    0.79317   0.79317   0.79384   0.79529   0.79723
 Alpha virt. eigenvalues --    0.79723   0.79798   0.79799   0.79823   0.79843
 Alpha virt. eigenvalues --    0.80127   0.80224   0.80224   0.80544   0.80657
 Alpha virt. eigenvalues --    0.80657   0.80679   0.80680   0.80841   0.80934
 Alpha virt. eigenvalues --    0.80934   0.81019   0.81117   0.81196   0.81246
 Alpha virt. eigenvalues --    0.81247   0.81462   0.81529   0.81530   0.81656
 Alpha virt. eigenvalues --    0.81656   0.81893   0.81893   0.82297   0.82298
 Alpha virt. eigenvalues --    0.82368   0.82466   0.82501   0.82502   0.82575
 Alpha virt. eigenvalues --    0.82643   0.82643   0.82993   0.83202   0.83376
 Alpha virt. eigenvalues --    0.83377   0.83460   0.83601   0.83601   0.83762
 Alpha virt. eigenvalues --    0.83764   0.84011   0.84011   0.84152   0.84154
 Alpha virt. eigenvalues --    0.84255   0.84376   0.84679   0.84680   0.84844
 Alpha virt. eigenvalues --    0.84844   0.84910   0.85051   0.85053   0.85305
 Alpha virt. eigenvalues --    0.85335   0.85354   0.85537   0.85552   0.85554
 Alpha virt. eigenvalues --    0.85674   0.85686   0.85940   0.85942   0.86009
 Alpha virt. eigenvalues --    0.86010   0.86392   0.86523   0.86535   0.86608
 Alpha virt. eigenvalues --    0.86610   0.86642   0.86643   0.87064   0.87135
 Alpha virt. eigenvalues --    0.87136   0.87236   0.87236   0.87710   0.87711
 Alpha virt. eigenvalues --    0.87735   0.88123   0.88275   0.88276   0.88345
 Alpha virt. eigenvalues --    0.88595   0.88665   0.88938   0.88939   0.89011
 Alpha virt. eigenvalues --    0.89012   0.89570   0.89572   0.90335   0.90337
 Alpha virt. eigenvalues --    0.90834   0.90865   0.90866   0.91006   0.91090
 Alpha virt. eigenvalues --    0.91154   0.91255   0.91256   0.91738   0.91740
 Alpha virt. eigenvalues --    0.91941   0.91942   0.92369   0.92369   0.92643
 Alpha virt. eigenvalues --    0.92843   0.92844   0.92991   0.93347   0.93347
 Alpha virt. eigenvalues --    0.93498   0.93713   0.93776   0.93897   0.94039
 Alpha virt. eigenvalues --    0.94203   0.94204   0.94295   0.94296   0.94376
 Alpha virt. eigenvalues --    0.94379   0.94659   0.94659   0.94880   0.95364
 Alpha virt. eigenvalues --    0.95365   0.95422   0.95425   0.95810   0.95814
 Alpha virt. eigenvalues --    0.95873   0.95880   0.96104   0.96191   0.96192
 Alpha virt. eigenvalues --    0.96263   0.96263   0.97074   0.97075   0.97181
 Alpha virt. eigenvalues --    0.97181   0.97357   0.97357   0.97454   0.97583
 Alpha virt. eigenvalues --    0.97701   0.97701   0.97867   0.97887   0.97887
 Alpha virt. eigenvalues --    0.98397   0.98398   0.98683   0.98824   0.98825
 Alpha virt. eigenvalues --    0.99285   0.99436   0.99643   0.99645   0.99907
 Alpha virt. eigenvalues --    1.00268   1.00269   1.00342   1.00486   1.00516
 Alpha virt. eigenvalues --    1.00518   1.00920   1.01046   1.01067   1.01068
 Alpha virt. eigenvalues --    1.01244   1.01245   1.01545   1.01591   1.01592
 Alpha virt. eigenvalues --    1.01907   1.01908   1.02080   1.02147   1.02149
 Alpha virt. eigenvalues --    1.02299   1.02432   1.02588   1.02588   1.02790
 Alpha virt. eigenvalues --    1.02792   1.03190   1.03305   1.03306   1.03443
 Alpha virt. eigenvalues --    1.04375   1.04565   1.04824   1.04994   1.04994
 Alpha virt. eigenvalues --    1.05081   1.05082   1.06038   1.06041   1.06330
 Alpha virt. eigenvalues --    1.06474   1.06475   1.06638   1.06678   1.06885
 Alpha virt. eigenvalues --    1.06887   1.07209   1.07209   1.07225   1.07226
 Alpha virt. eigenvalues --    1.07244   1.07709   1.08047   1.08396   1.08483
 Alpha virt. eigenvalues --    1.08483   1.08513   1.08513   1.08628   1.08629
 Alpha virt. eigenvalues --    1.09018   1.09258   1.09259   1.10002   1.10014
 Alpha virt. eigenvalues --    1.10140   1.10204   1.10204   1.10394   1.10501
 Alpha virt. eigenvalues --    1.10501   1.10572   1.10572   1.10769   1.10769
 Alpha virt. eigenvalues --    1.11532   1.11759   1.11760   1.11783   1.11785
 Alpha virt. eigenvalues --    1.12142   1.12568   1.12732   1.12732   1.12885
 Alpha virt. eigenvalues --    1.12885   1.13183   1.13183   1.13256   1.13958
 Alpha virt. eigenvalues --    1.13958   1.14269   1.14565   1.14689   1.14689
 Alpha virt. eigenvalues --    1.14934   1.14936   1.14937   1.15290   1.15525
 Alpha virt. eigenvalues --    1.15526   1.15768   1.15943   1.15944   1.15982
 Alpha virt. eigenvalues --    1.15982   1.16280   1.16444   1.16630   1.16631
 Alpha virt. eigenvalues --    1.16747   1.17051   1.17175   1.17176   1.17265
 Alpha virt. eigenvalues --    1.17266   1.17287   1.17477   1.18078   1.18255
 Alpha virt. eigenvalues --    1.18341   1.18342   1.18424   1.18426   1.18475
 Alpha virt. eigenvalues --    1.18712   1.18715   1.18936   1.18937   1.19177
 Alpha virt. eigenvalues --    1.19673   1.19675   1.19818   1.20429   1.20448
 Alpha virt. eigenvalues --    1.20451   1.20519   1.20520   1.20710   1.21026
 Alpha virt. eigenvalues --    1.21079   1.21080   1.21214   1.21215   1.21470
 Alpha virt. eigenvalues --    1.21495   1.21640   1.21641   1.22017   1.22018
 Alpha virt. eigenvalues --    1.22197   1.22407   1.22408   1.22801   1.22802
 Alpha virt. eigenvalues --    1.22879   1.22880   1.22910   1.23311   1.23312
 Alpha virt. eigenvalues --    1.23434   1.23436   1.23477   1.23835   1.23836
 Alpha virt. eigenvalues --    1.23837   1.24291   1.24372   1.25006   1.25093
 Alpha virt. eigenvalues --    1.25094   1.25285   1.25613   1.25615   1.26188
 Alpha virt. eigenvalues --    1.26190   1.26746   1.26747   1.26829   1.27140
 Alpha virt. eigenvalues --    1.27428   1.27442   1.27600   1.27602   1.27764
 Alpha virt. eigenvalues --    1.28071   1.28071   1.28237   1.28238   1.28685
 Alpha virt. eigenvalues --    1.29319   1.29320   1.29329   1.29621   1.29621
 Alpha virt. eigenvalues --    1.29885   1.29887   1.30575   1.30577   1.30608
 Alpha virt. eigenvalues --    1.30609   1.31139   1.31177   1.31179   1.31186
 Alpha virt. eigenvalues --    1.31269   1.31475   1.31477   1.31526   1.31973
 Alpha virt. eigenvalues --    1.31975   1.32719   1.32936   1.32937   1.33124
 Alpha virt. eigenvalues --    1.33185   1.33319   1.33320   1.33648   1.34042
 Alpha virt. eigenvalues --    1.34043   1.34343   1.34343   1.34518   1.34709
 Alpha virt. eigenvalues --    1.34783   1.34783   1.35256   1.35355   1.35356
 Alpha virt. eigenvalues --    1.35527   1.35528   1.35609   1.35615   1.35858
 Alpha virt. eigenvalues --    1.35859   1.36221   1.36540   1.36543   1.37163
 Alpha virt. eigenvalues --    1.37339   1.37399   1.37810   1.37811   1.38185
 Alpha virt. eigenvalues --    1.38280   1.38282   1.38454   1.38455   1.39032
 Alpha virt. eigenvalues --    1.39239   1.39519   1.39520   1.39894   1.39969
 Alpha virt. eigenvalues --    1.39970   1.40064   1.40101   1.40102   1.40296
 Alpha virt. eigenvalues --    1.40296   1.40697   1.40698   1.40795   1.40812
 Alpha virt. eigenvalues --    1.40834   1.40834   1.40880   1.40972   1.41148
 Alpha virt. eigenvalues --    1.41148   1.41310   1.41340   1.41342   1.41712
 Alpha virt. eigenvalues --    1.41713   1.41961   1.42038   1.42039   1.42284
 Alpha virt. eigenvalues --    1.42424   1.42425   1.42753   1.42966   1.42967
 Alpha virt. eigenvalues --    1.43351   1.43352   1.43515   1.43516   1.43670
 Alpha virt. eigenvalues --    1.43670   1.43673   1.43674   1.43793   1.43824
 Alpha virt. eigenvalues --    1.43998   1.44031   1.44032   1.44215   1.44215
 Alpha virt. eigenvalues --    1.44350   1.44350   1.44626   1.44690   1.44726
 Alpha virt. eigenvalues --    1.44727   1.45291   1.45291   1.45434   1.45435
 Alpha virt. eigenvalues --    1.45585   1.45917   1.45919   1.45931   1.46185
 Alpha virt. eigenvalues --    1.46186   1.46703   1.46704   1.46830   1.46925
 Alpha virt. eigenvalues --    1.47538   1.47601   1.47604   1.48119   1.48119
 Alpha virt. eigenvalues --    1.48324   1.48347   1.48349   1.48622   1.48977
 Alpha virt. eigenvalues --    1.48980   1.49290   1.49290   1.49399   1.49406
 Alpha virt. eigenvalues --    1.49422   1.49682   1.49731   1.49731   1.50010
 Alpha virt. eigenvalues --    1.50133   1.50134   1.50321   1.50322   1.50407
 Alpha virt. eigenvalues --    1.50615   1.50703   1.50704   1.51266   1.51319
 Alpha virt. eigenvalues --    1.51414   1.51415   1.51578   1.51578   1.51732
 Alpha virt. eigenvalues --    1.51733   1.51936   1.51937   1.52278   1.52658
 Alpha virt. eigenvalues --    1.52832   1.52833   1.53146   1.53168   1.53169
 Alpha virt. eigenvalues --    1.53533   1.53547   1.53547   1.53604   1.53630
 Alpha virt. eigenvalues --    1.53631   1.53731   1.53834   1.53835   1.54140
 Alpha virt. eigenvalues --    1.54183   1.54184   1.54212   1.54383   1.54384
 Alpha virt. eigenvalues --    1.54467   1.54897   1.54918   1.54918   1.55262
 Alpha virt. eigenvalues --    1.55263   1.55271   1.55271   1.55440   1.55583
 Alpha virt. eigenvalues --    1.55584   1.55840   1.55840   1.55907   1.56295
 Alpha virt. eigenvalues --    1.56448   1.56448   1.56606   1.56719   1.56721
 Alpha virt. eigenvalues --    1.57113   1.57113   1.57161   1.57162   1.57211
 Alpha virt. eigenvalues --    1.57242   1.57243   1.57390   1.57427   1.57496
 Alpha virt. eigenvalues --    1.57498   1.57583   1.57825   1.58361   1.58362
 Alpha virt. eigenvalues --    1.58446   1.58447   1.58474   1.58758   1.59055
 Alpha virt. eigenvalues --    1.59056   1.59089   1.59729   1.59878   1.59878
 Alpha virt. eigenvalues --    1.59954   1.59955   1.60124   1.60540   1.60540
 Alpha virt. eigenvalues --    1.60832   1.60833   1.61082   1.61097   1.61502
 Alpha virt. eigenvalues --    1.61711   1.61712   1.62214   1.62339   1.62340
 Alpha virt. eigenvalues --    1.62353   1.62561   1.62561   1.62993   1.63148
 Alpha virt. eigenvalues --    1.63148   1.63790   1.63791   1.63832   1.63833
 Alpha virt. eigenvalues --    1.64271   1.64721   1.64722   1.64770   1.64873
 Alpha virt. eigenvalues --    1.64933   1.64934   1.65110   1.65110   1.65368
 Alpha virt. eigenvalues --    1.65368   1.65369   1.65907   1.67049   1.67050
 Alpha virt. eigenvalues --    1.67512   1.67512   1.67526   1.67600   1.68378
 Alpha virt. eigenvalues --    1.68379   1.68741   1.69096   1.69097   1.69662
 Alpha virt. eigenvalues --    1.69662   1.70185   1.70588   1.70588   1.71088
 Alpha virt. eigenvalues --    1.71640   1.71641   1.72644   1.72645   1.72927
 Alpha virt. eigenvalues --    1.73043   1.73207   1.73208   1.74029   1.74118
 Alpha virt. eigenvalues --    1.74135   1.74177   1.74178   1.74586   1.74586
 Alpha virt. eigenvalues --    1.75192   1.75193   1.75473   1.76362   1.76362
 Alpha virt. eigenvalues --    1.76848   1.77000   1.77000   1.77119   1.77327
 Alpha virt. eigenvalues --    1.77630   1.77630   1.77671   1.77883   1.77884
 Alpha virt. eigenvalues --    1.78170   1.78474   1.78475   1.78720   1.78721
 Alpha virt. eigenvalues --    1.78971   1.79390   1.79649   1.79651   1.80024
 Alpha virt. eigenvalues --    1.80026   1.80215   1.80216   1.80387   1.80388
 Alpha virt. eigenvalues --    1.80421   1.80936   1.81020   1.81394   1.81498
 Alpha virt. eigenvalues --    1.81499   1.81513   1.81516   1.81623   1.81624
 Alpha virt. eigenvalues --    1.81735   1.81737   1.81752   1.81976   1.82079
 Alpha virt. eigenvalues --    1.82427   1.82427   1.82498   1.82611   1.82674
 Alpha virt. eigenvalues --    1.82674   1.83050   1.83050   1.83509   1.83511
 Alpha virt. eigenvalues --    1.83511   1.83513   1.83513   1.83958   1.84095
 Alpha virt. eigenvalues --    1.84095   1.84111   1.84318   1.84453   1.84454
 Alpha virt. eigenvalues --    1.84523   1.84557   1.84559   1.84610   1.84806
 Alpha virt. eigenvalues --    1.84806   1.84984   1.85181   1.85222   1.85246
 Alpha virt. eigenvalues --    1.85247   1.85740   1.85741   1.85746   1.85943
 Alpha virt. eigenvalues --    1.85944   1.85970   1.86243   1.86244   1.86483
 Alpha virt. eigenvalues --    1.86484   1.86732   1.86921   1.87011   1.87034
 Alpha virt. eigenvalues --    1.87035   1.87112   1.87113   1.87287   1.87288
 Alpha virt. eigenvalues --    1.87470   1.87786   1.87787   1.88012   1.88230
 Alpha virt. eigenvalues --    1.88463   1.88463   1.88464   1.88843   1.88843
 Alpha virt. eigenvalues --    1.89004   1.89005   1.89220   1.89248   1.89250
 Alpha virt. eigenvalues --    1.89444   1.89444   1.89647   1.89732   1.89752
 Alpha virt. eigenvalues --    1.89753   1.89767   1.90025   1.90188   1.90189
 Alpha virt. eigenvalues --    1.90292   1.90293   1.90458   1.90566   1.90940
 Alpha virt. eigenvalues --    1.90942   1.91220   1.91220   1.91474   1.91481
 Alpha virt. eigenvalues --    1.91621   1.91643   1.91645   1.91810   1.92066
 Alpha virt. eigenvalues --    1.92067   1.92456   1.92457   1.92474   1.92478
 Alpha virt. eigenvalues --    1.92752   1.92753   1.93117   1.93119   1.93456
 Alpha virt. eigenvalues --    1.93587   1.93588   1.94147   1.94355   1.94356
 Alpha virt. eigenvalues --    1.94394   1.94395   1.94779   1.94779   1.94813
 Alpha virt. eigenvalues --    1.94980   1.95469   1.95470   1.95607   1.95608
 Alpha virt. eigenvalues --    1.96131   1.96183   1.96219   1.96220   1.96234
 Alpha virt. eigenvalues --    1.96934   1.96962   1.96963   1.97103   1.97782
 Alpha virt. eigenvalues --    1.97783   1.98244   1.98246   1.98599   1.98745
 Alpha virt. eigenvalues --    1.98937   1.98969   1.99357   1.99358   1.99839
 Alpha virt. eigenvalues --    1.99840   2.00253   2.00307   2.00307   2.00602
 Alpha virt. eigenvalues --    2.00602   2.00796   2.00797   2.02069   2.02640
 Alpha virt. eigenvalues --    2.02642   2.02990   2.02991   2.03031   2.03184
 Alpha virt. eigenvalues --    2.03661   2.03769   2.03769   2.03868   2.04320
 Alpha virt. eigenvalues --    2.04321   2.04563   2.04565   2.04804   2.05209
 Alpha virt. eigenvalues --    2.05210   2.05378   2.05378   2.05608   2.05609
 Alpha virt. eigenvalues --    2.05964   2.06297   2.07163   2.07164   2.08016
 Alpha virt. eigenvalues --    2.08207   2.08207   2.08236   2.08592   2.08687
 Alpha virt. eigenvalues --    2.08687   2.08759   2.08760   2.08968   2.09135
 Alpha virt. eigenvalues --    2.09135   2.09329   2.09376   2.09431   2.10509
 Alpha virt. eigenvalues --    2.10510   2.10542   2.10704   2.10707   2.10873
 Alpha virt. eigenvalues --    2.10875   2.11504   2.11775   2.11777   2.11813
 Alpha virt. eigenvalues --    2.11986   2.11986   2.12027   2.12652   2.12653
 Alpha virt. eigenvalues --    2.12757   2.13635   2.13718   2.13720   2.13840
 Alpha virt. eigenvalues --    2.13841   2.14252   2.14542   2.14549   2.15006
 Alpha virt. eigenvalues --    2.15009   2.15177   2.15180   2.15266   2.15727
 Alpha virt. eigenvalues --    2.15821   2.15823   2.17014   2.17016   2.17373
 Alpha virt. eigenvalues --    2.17443   2.17444   2.17541   2.18323   2.18324
 Alpha virt. eigenvalues --    2.18375   2.19056   2.19058   2.19371   2.20029
 Alpha virt. eigenvalues --    2.20032   2.20061   2.20111   2.20178   2.20180
 Alpha virt. eigenvalues --    2.20383   2.20562   2.20563   2.20682   2.20757
 Alpha virt. eigenvalues --    2.21080   2.21081   2.21410   2.21957   2.21958
 Alpha virt. eigenvalues --    2.22125   2.22126   2.22547   2.23400   2.23401
 Alpha virt. eigenvalues --    2.23461   2.23461   2.23865   2.23866   2.23994
 Alpha virt. eigenvalues --    2.24713   2.24713   2.24882   2.24882   2.25328
 Alpha virt. eigenvalues --    2.25501   2.26110   2.26182   2.26182   2.26266
 Alpha virt. eigenvalues --    2.26268   2.26275   2.27074   2.27179   2.27180
 Alpha virt. eigenvalues --    2.27633   2.27635   2.27894   2.27895   2.28146
 Alpha virt. eigenvalues --    2.28147   2.28187   2.28306   2.28615   2.28657
 Alpha virt. eigenvalues --    2.28657   2.29588   2.29589   2.30597   2.30638
 Alpha virt. eigenvalues --    2.30669   2.30670   2.30759   2.30784   2.30787
 Alpha virt. eigenvalues --    2.32150   2.32150   2.32915   2.32976   2.33030
 Alpha virt. eigenvalues --    2.33031   2.33156   2.33253   2.33519   2.33520
 Alpha virt. eigenvalues --    2.33566   2.33567   2.33577   2.34000   2.34000
 Alpha virt. eigenvalues --    2.34563   2.34563   2.35249   2.35603   2.35604
 Alpha virt. eigenvalues --    2.35629   2.35831   2.36135   2.36136   2.36574
 Alpha virt. eigenvalues --    2.36575   2.36602   2.36717   2.36719   2.37289
 Alpha virt. eigenvalues --    2.37419   2.37420   2.37432   2.37613   2.37821
 Alpha virt. eigenvalues --    2.37900   2.37901   2.38563   2.38564   2.38784
 Alpha virt. eigenvalues --    2.39039   2.39560   2.39562   2.40225   2.40226
 Alpha virt. eigenvalues --    2.40315   2.40383   2.40384   2.40893   2.41037
 Alpha virt. eigenvalues --    2.41067   2.41895   2.41895   2.42253   2.42256
 Alpha virt. eigenvalues --    2.42777   2.43099   2.43100   2.43830   2.43831
 Alpha virt. eigenvalues --    2.43899   2.44415   2.44962   2.45068   2.45511
 Alpha virt. eigenvalues --    2.45640   2.45643   2.45919   2.45919   2.46571
 Alpha virt. eigenvalues --    2.46572   2.46760   2.46913   2.46913   2.46969
 Alpha virt. eigenvalues --    2.46969   2.46970   2.47707   2.47707   2.47920
 Alpha virt. eigenvalues --    2.47921   2.48212   2.48370   2.48404   2.48404
 Alpha virt. eigenvalues --    2.48418   2.48420   2.48718   2.49331   2.49332
 Alpha virt. eigenvalues --    2.49401   2.49402   2.49436   2.49495   2.49969
 Alpha virt. eigenvalues --    2.50080   2.50080   2.50464   2.50465   2.51103
 Alpha virt. eigenvalues --    2.51104   2.51433   2.52097   2.52099   2.52217
 Alpha virt. eigenvalues --    2.52386   2.52799   2.52800   2.52962   2.53040
 Alpha virt. eigenvalues --    2.53228   2.53228   2.53382   2.53382   2.53438
 Alpha virt. eigenvalues --    2.53896   2.53896   2.54285   2.54286   2.54666
 Alpha virt. eigenvalues --    2.55070   2.55119   2.55120   2.55539   2.55591
 Alpha virt. eigenvalues --    2.55591   2.56347   2.56558   2.56559   2.57023
 Alpha virt. eigenvalues --    2.57023   2.57191   2.57229   2.57478   2.57634
 Alpha virt. eigenvalues --    2.57636   2.57864   2.58547   2.58643   2.58644
 Alpha virt. eigenvalues --    2.59014   2.59033   2.59033   2.59272   2.59272
 Alpha virt. eigenvalues --    2.59658   2.59910   2.59911   2.59981   2.59981
 Alpha virt. eigenvalues --    2.60261   2.60667   2.60754   2.60755   2.61320
 Alpha virt. eigenvalues --    2.61321   2.61620   2.61654   2.61655   2.61962
 Alpha virt. eigenvalues --    2.62028   2.62372   2.62373   2.62503   2.62504
 Alpha virt. eigenvalues --    2.62557   2.63050   2.63050   2.63207   2.63410
 Alpha virt. eigenvalues --    2.63411   2.63680   2.63680   2.63758   2.64464
 Alpha virt. eigenvalues --    2.64466   2.64815   2.64857   2.65094   2.66391
 Alpha virt. eigenvalues --    2.66393   2.66954   2.67010   2.67010   2.67071
 Alpha virt. eigenvalues --    2.67239   2.67317   2.67318   2.67703   2.67705
 Alpha virt. eigenvalues --    2.68016   2.68165   2.69406   2.69683   2.69684
 Alpha virt. eigenvalues --    2.69699   2.69700   2.70081   2.70122   2.70123
 Alpha virt. eigenvalues --    2.70570   2.70571   2.70710   2.70711   2.70731
 Alpha virt. eigenvalues --    2.70904   2.71084   2.71086   2.71203   2.71669
 Alpha virt. eigenvalues --    2.71671   2.71693   2.71694   2.71906   2.73557
 Alpha virt. eigenvalues --    2.74102   2.74104   2.74298   2.74299   2.74648
 Alpha virt. eigenvalues --    2.75015   2.75841   2.75841   2.75881   2.75885
 Alpha virt. eigenvalues --    2.76446   2.76629   2.77014   2.77015   2.77154
 Alpha virt. eigenvalues --    2.77154   2.77657   2.77661   2.78763   2.79896
 Alpha virt. eigenvalues --    2.80207   2.80208   2.80495   2.80496   2.80501
 Alpha virt. eigenvalues --    2.80836   2.80836   2.81573   2.82445   2.82746
 Alpha virt. eigenvalues --    2.82869   2.82977   2.82978   2.84321   2.84323
 Alpha virt. eigenvalues --    2.84950   2.84951   2.85204   2.85206   2.85535
 Alpha virt. eigenvalues --    2.85537   2.86368   2.86388   2.87040   2.87364
 Alpha virt. eigenvalues --    2.87365   2.87722   2.87834   2.88223   2.88225
 Alpha virt. eigenvalues --    2.88836   2.90549   2.91198   2.91201   2.91424
 Alpha virt. eigenvalues --    2.91426   2.93222   2.93223   2.93778   2.94327
 Alpha virt. eigenvalues --    2.94328   2.94710   2.95004   2.95009   2.95251
 Alpha virt. eigenvalues --    2.95299   2.95299   2.95844   2.96110   2.96111
 Alpha virt. eigenvalues --    2.96397   2.96877   2.96878   2.97016   2.97017
 Alpha virt. eigenvalues --    2.97358   2.97358   2.97993   2.99074   2.99126
 Alpha virt. eigenvalues --    2.99127   2.99293   2.99294   2.99508   2.99606
 Alpha virt. eigenvalues --    2.99796   2.99796   3.00528   3.00529   3.00610
 Alpha virt. eigenvalues --    3.00610   3.01294   3.01338   3.01338   3.01823
 Alpha virt. eigenvalues --    3.01839   3.02142   3.02143   3.02794   3.02794
 Alpha virt. eigenvalues --    3.02914   3.02914   3.03618   3.03746   3.03747
 Alpha virt. eigenvalues --    3.03984   3.04057   3.04057   3.04498   3.05406
 Alpha virt. eigenvalues --    3.05406   3.06189   3.06319   3.06319   3.06337
 Alpha virt. eigenvalues --    3.06480   3.07499   3.07500   3.08047   3.08196
 Alpha virt. eigenvalues --    3.09512   3.09513   3.10299   3.10375   3.10410
 Alpha virt. eigenvalues --    3.10411   3.10549   3.10553   3.11024   3.11047
 Alpha virt. eigenvalues --    3.11119   3.11120   3.11174   3.11343   3.11344
 Alpha virt. eigenvalues --    3.11640   3.11641   3.11741   3.12016   3.12017
 Alpha virt. eigenvalues --    3.12066   3.12142   3.12142   3.12353   3.12354
 Alpha virt. eigenvalues --    3.12582   3.12775   3.13070   3.13125   3.13126
 Alpha virt. eigenvalues --    3.13183   3.13184   3.13453   3.13456   3.13716
 Alpha virt. eigenvalues --    3.13727   3.13729   3.13782   3.13784   3.14070
 Alpha virt. eigenvalues --    3.14071   3.14509   3.14509   3.14803   3.14804
 Alpha virt. eigenvalues --    3.14906   3.14907   3.15046   3.15077   3.15103
 Alpha virt. eigenvalues --    3.15271   3.15662   3.15662   3.15756   3.16159
 Alpha virt. eigenvalues --    3.16160   3.16251   3.16278   3.16278   3.16398
 Alpha virt. eigenvalues --    3.16672   3.16673   3.17276   3.17277   3.17706
 Alpha virt. eigenvalues --    3.18034   3.18035   3.18119   3.18210   3.18211
 Alpha virt. eigenvalues --    3.18277   3.18278   3.18324   3.18595   3.18758
 Alpha virt. eigenvalues --    3.18834   3.19141   3.19142   3.19238   3.19238
 Alpha virt. eigenvalues --    3.19309   3.19797   3.19806   3.19807   3.19914
 Alpha virt. eigenvalues --    3.20039   3.20039   3.20077   3.20078   3.20361
 Alpha virt. eigenvalues --    3.20728   3.20728   3.20868   3.21076   3.21076
 Alpha virt. eigenvalues --    3.21462   3.21463   3.21545   3.21590   3.21702
 Alpha virt. eigenvalues --    3.22626   3.22627   3.23309   3.23310   3.24174
 Alpha virt. eigenvalues --    3.24174   3.24263   3.24264   3.24309   3.24309
 Alpha virt. eigenvalues --    3.24593   3.24702   3.24824   3.25107   3.25108
 Alpha virt. eigenvalues --    3.25192   3.25192   3.25727   3.26360   3.26640
 Alpha virt. eigenvalues --    3.26640   3.27022   3.27383   3.27384   3.27919
 Alpha virt. eigenvalues --    3.27925   3.27925   3.27971   3.28011   3.28011
 Alpha virt. eigenvalues --    3.28029   3.28773   3.28977   3.29095   3.29095
 Alpha virt. eigenvalues --    3.29797   3.29797   3.29877   3.29877   3.30274
 Alpha virt. eigenvalues --    3.30275   3.30305   3.30306   3.30308   3.30619
 Alpha virt. eigenvalues --    3.30868   3.31822   3.31823   3.32363   3.33319
 Alpha virt. eigenvalues --    3.33594   3.33595   3.33898   3.33898   3.34014
 Alpha virt. eigenvalues --    3.34381   3.34382   3.34510   3.35549   3.37213
 Alpha virt. eigenvalues --    3.37214   3.37510   3.37511   3.37654   3.38233
 Alpha virt. eigenvalues --    3.38233   3.38898   3.38899   3.38908   3.39104
 Alpha virt. eigenvalues --    3.39579   3.39764   3.39765   3.40561   3.40842
 Alpha virt. eigenvalues --    3.40842   3.41081   3.41082   3.41545   3.41547
 Alpha virt. eigenvalues --    3.41661   3.42358   3.42358   3.42772   3.42904
 Alpha virt. eigenvalues --    3.42949   3.42949   3.42975   3.42976   3.43286
 Alpha virt. eigenvalues --    3.43549   3.43817   3.43818   3.44231   3.44232
 Alpha virt. eigenvalues --    3.44301   3.44384   3.44385   3.45775   3.45798
 Alpha virt. eigenvalues --    3.45951   3.46265   3.46266   3.46903   3.47248
 Alpha virt. eigenvalues --    3.47249   3.47270   3.47485   3.48124   3.48125
 Alpha virt. eigenvalues --    3.48272   3.48627   3.48627   3.49314   3.49664
 Alpha virt. eigenvalues --    3.49665   3.50051   3.50266   3.50521   3.50521
 Alpha virt. eigenvalues --    3.50733   3.50734   3.51086   3.51275   3.51276
 Alpha virt. eigenvalues --    3.51293   3.51294   3.52386   3.52674   3.52674
 Alpha virt. eigenvalues --    3.52761   3.53771   3.53773   3.53963   3.53964
 Alpha virt. eigenvalues --    3.54033   3.54196   3.54197   3.54781   3.55174
 Alpha virt. eigenvalues --    3.55831   3.55831   3.56766   3.56766   3.57395
 Alpha virt. eigenvalues --    3.57529   3.57530   3.57531   3.57939   3.59037
 Alpha virt. eigenvalues --    3.59038   3.61238   3.61795   3.61795   3.63730
 Alpha virt. eigenvalues --    3.63731   3.64268   3.69058   3.69598   3.69598
 Alpha virt. eigenvalues --    3.71554   3.71555   3.72336   3.72336   3.72984
 Alpha virt. eigenvalues --    3.74941   3.76319   3.77164   3.77164   3.78580
 Alpha virt. eigenvalues --    3.79244   3.79244   3.80287   3.80288   3.81451
 Alpha virt. eigenvalues --    3.81466   3.81725   3.82602   3.82603   3.82926
 Alpha virt. eigenvalues --    3.82926   3.83426   3.83427   3.84469   3.84926
 Alpha virt. eigenvalues --    3.86380   3.86381   3.86938   3.86940   3.87008
 Alpha virt. eigenvalues --    3.87887   3.88253   3.88254   3.88929   3.88930
 Alpha virt. eigenvalues --    3.90013   3.90120   3.90120   3.90295   3.90391
 Alpha virt. eigenvalues --    3.91388   3.91389   3.92088   3.93454   3.93454
 Alpha virt. eigenvalues --    3.93863   3.93865   3.96081   3.97670   3.97670
 Alpha virt. eigenvalues --    3.98743   4.00787   4.00787   4.01251   4.02240
 Alpha virt. eigenvalues --    4.03351   4.04269   4.04269   4.04765   4.04765
 Alpha virt. eigenvalues --    4.11165   4.11165   4.15346   4.15347   4.15445
 Alpha virt. eigenvalues --    4.15897   4.15897   4.16846   4.19909   4.28838
 Alpha virt. eigenvalues --    4.31420   4.34570   4.34571   4.42148   4.42149
 Alpha virt. eigenvalues --    4.45488   4.45488   4.52949   4.56735   4.56740
 Alpha virt. eigenvalues --    4.63990   4.64546   4.68730   4.68771   4.68775
 Alpha virt. eigenvalues --    4.69495   4.69498   4.69618   4.69620   4.69713
 Alpha virt. eigenvalues --    4.70234   4.70395   4.70397   4.74181   4.74584
 Alpha virt. eigenvalues --    4.74585   4.75958   4.75959   4.76036   4.76699
 Alpha virt. eigenvalues --    4.76700   4.77672   4.78141   4.78141   4.78153
 Alpha virt. eigenvalues --    4.79189   4.79192   4.79410   4.80729   4.80731
 Alpha virt. eigenvalues --    4.82224   4.82533   4.82547   4.82548   4.83072
 Alpha virt. eigenvalues --    4.83075   4.83175   4.83944   4.84573   4.84576
 Alpha virt. eigenvalues --    4.85486   4.86199   4.86944   4.86945   4.87322
 Alpha virt. eigenvalues --    4.87323   4.87917   4.87919   4.90200   4.90201
 Alpha virt. eigenvalues --    4.90685   4.90818   4.90851   4.90852   4.90949
 Alpha virt. eigenvalues --    4.93304   4.93304   4.93878   4.94309   4.96088
 Alpha virt. eigenvalues --    4.96093   4.98008   4.99122   4.99123   5.03383
 Alpha virt. eigenvalues --    5.03386   5.03756  23.04062  23.10722  23.10723
 Alpha virt. eigenvalues --   23.25511  23.25512  23.27242  23.30400  23.30401
 Alpha virt. eigenvalues --   23.38074  23.38075  23.39491  23.41216  23.49784
 Alpha virt. eigenvalues --   23.51115  23.52377  23.52377  23.52467  23.54418
 Alpha virt. eigenvalues --   23.54418  23.58107  23.58108  23.65588  23.65588
 Alpha virt. eigenvalues --   23.65703  23.65993  23.66374  23.66374  23.67791
 Alpha virt. eigenvalues --   23.69876  23.69876  23.70370  23.70371  23.72839
 Alpha virt. eigenvalues --   23.74325  23.74325  23.77598  23.77704  23.77704
 Alpha virt. eigenvalues --   23.78296  23.78890  23.79171  23.79172  23.80140
 Alpha virt. eigenvalues --   23.80141  23.81769  23.81769  23.82132  23.84106
 Alpha virt. eigenvalues --   23.84889  23.86124  23.86235  23.86349  23.86350
 Alpha virt. eigenvalues --   23.86789  23.86789  23.87044  23.87045  23.87054
 Alpha virt. eigenvalues --   23.87342  23.87342  23.88757  23.89154  23.89485
 Alpha virt. eigenvalues --   23.89486  23.90008  23.91184  23.91185  23.91355
[...]
   117  C    0.000149   0.000000  -0.007189  -0.003423  -0.007454   0.000092
   118  C   -0.000572   0.000000   0.001592  -0.008695   0.003504  -0.000745
   119  C    0.000143   0.000000  -0.000638  -0.007957  -0.007460   0.000086
   120  C   -0.000585   0.000000   0.008344  -0.002997   0.003525  -0.000758
   121  C   -0.000584   0.000000   0.000655   0.008145  -0.013511  -0.000815
   122  C   -0.000225   0.000000   0.010128   0.000334   0.000783  -0.000577
   123  C   -0.000586   0.000000  -0.006725   0.004664  -0.013513  -0.000818
   124  C   -0.000229   0.000000   0.004774   0.008954   0.000799  -0.000581
   125  C   -0.000590   0.000000  -0.007385  -0.003508  -0.013506  -0.000821
   126  C   -0.000227   0.000000  -0.005338   0.008592   0.000797  -0.000578
   127  C   -0.000584   0.000000  -0.000655  -0.008145  -0.013511  -0.000815
   128  C   -0.000225   0.000000  -0.010128  -0.000334   0.000783  -0.000577
   129  C   -0.000586   0.000000   0.006725  -0.004664  -0.013513  -0.000818
   130  C   -0.000229   0.000000  -0.004774  -0.008954   0.000799  -0.000581
   131  C   -0.000590   0.000000   0.007385   0.003508  -0.013506  -0.000821
   132  C   -0.000227   0.000000   0.005338  -0.008592   0.000797  -0.000578
   133  C   -0.001643   0.000000  -0.024593   0.018562  -0.014313  -0.005788
   134  C   -0.001346   0.000000   0.027541   0.000454   0.004811  -0.005528
   135  C   -0.001642   0.000000  -0.028373  -0.012029  -0.014304  -0.005788
   136  C   -0.001347   0.000000   0.013391   0.024070   0.004826  -0.005529
   137  C   -0.001645   0.000000  -0.003769  -0.030585  -0.014323  -0.005790
   138  C   -0.001344   0.000000  -0.014155   0.023629   0.004816  -0.005526
   139  C   -0.001643   0.000000   0.024593  -0.018562  -0.014313  -0.005788
   140  C   -0.001346   0.000000  -0.027541  -0.000454   0.004811  -0.005528
   141  C   -0.001642   0.000000   0.028373   0.012029  -0.014304  -0.005788
   142  C   -0.001347   0.000000  -0.013391  -0.024070   0.004826  -0.005529
   143  C   -0.001645   0.000000   0.003769   0.030585  -0.014323  -0.005790
   144  C   -0.001344   0.000000   0.014155  -0.023629   0.004816  -0.005526
   145  C   -0.003323   0.000000   0.008971   0.009534  -0.000665  -0.010367
   146  C   -0.039914   0.000000  -0.009041   0.004170   0.037455  -0.089905
   147  C   -0.003326   0.000000  -0.003762   0.012527  -0.000671  -0.010371
   148  C   -0.039911   0.000000  -0.008134  -0.005743   0.037454  -0.089901
   149  C   -0.003322   0.000000  -0.012718   0.003017  -0.000667  -0.010367
   150  C   -0.039906   0.000000   0.000916  -0.009906   0.037445  -0.089896
   151  C   -0.003323   0.000000  -0.008971  -0.009534  -0.000665  -0.010367
   152  C   -0.039914   0.000000   0.009041  -0.004170   0.037455  -0.089905
   153  C   -0.003326   0.000000   0.003762  -0.012527  -0.000671  -0.010371
   154  C   -0.039911   0.000000   0.008134   0.005743   0.037454  -0.089901
   155  C   -0.003322   0.000000   0.012718  -0.003017  -0.000667  -0.010367
   156  C   -0.039906   0.000000  -0.000916   0.009906   0.037445  -0.089896
   157  C   -0.040177   0.000000   0.029837   0.052611   0.015373  -0.093121
   158  C   -0.038336   0.000000  -0.030399  -0.042948   0.035592  -0.091169
   159  C   -0.040178   0.000000  -0.030655   0.052143   0.015376  -0.093122
   160  C   -0.038331   0.000000   0.021999  -0.047811   0.035575  -0.091165
   161  C   -0.040173   0.000000  -0.060474  -0.000486   0.015369  -0.093116
   162  C   -0.038329   0.000000   0.052393  -0.004840   0.035584  -0.091162
   163  C   -0.040177   0.000000  -0.029837  -0.052611   0.015373  -0.093121
   164  C   -0.038336   0.000000   0.030399   0.042948   0.035592  -0.091169
   165  C   -0.040178   0.000000   0.030655  -0.052143   0.015376  -0.093122
   166  C   -0.038331   0.000000  -0.021999   0.047811   0.035575  -0.091165
   167  C   -0.040173   0.000000   0.060474   0.000486   0.015369  -0.093116
   168  C   -0.038329   0.000000  -0.052393   0.004840   0.035584  -0.091162
   169  H    0.046226   0.000000   0.013889  -0.045053  -0.141583   0.102434
   170  H    0.044825   0.000000   0.008385   0.085171  -0.119308   0.102115
   171  H    0.046226   0.000000   0.045928  -0.010542  -0.141590   0.102434
   172  H    0.044824   0.000000  -0.069586   0.049819  -0.119307   0.102114
   173  H    0.046226   0.000000   0.032067   0.034536  -0.141590   0.102434
   174  H    0.044825   0.000000  -0.077975  -0.035311  -0.119299   0.102114
   175  H    0.046226   0.000000  -0.013889   0.045053  -0.141583   0.102434
   176  H    0.044825   0.000000  -0.008385  -0.085171  -0.119308   0.102115
   177  H    0.046226   0.000000  -0.045928   0.010542  -0.141590   0.102434
   178  H    0.044824   0.000000   0.069586  -0.049819  -0.119307   0.102114
   179  H    0.046226   0.000000  -0.032067  -0.034536  -0.141590   0.102434
   180  H    0.044825   0.000000   0.077975   0.035311  -0.119299   0.102114
   181  H    0.041548   0.000000   0.024659  -0.023169  -0.137700   0.100031
   182  H    0.041548   0.000000   0.032371   0.009795  -0.137706   0.100031
   183  H    0.041549   0.000000   0.007712   0.032945  -0.137699   0.100032
   184  H    0.041548   0.000000  -0.024659   0.023169  -0.137700   0.100031
   185  H    0.041548   0.000000  -0.032371  -0.009795  -0.137706   0.100031
   186  H    0.041549   0.000000  -0.007712  -0.032945  -0.137699   0.100032
   187  H    0.041549   0.000000  -0.032261  -0.010156   0.137705   0.100032
   188  H    0.041549   0.000000  -0.007347  -0.033032   0.137699   0.100032
   189  H    0.041549   0.000000   0.024927  -0.022877   0.137698   0.100032
   190  H    0.041549   0.000000   0.032261   0.010156   0.137705   0.100032
   191  H    0.041549   0.000000   0.007347   0.033032   0.137699   0.100032
   192  H    0.041549   0.000000  -0.024927   0.022877   0.137698   0.100032
   193  H    0.044822   0.000000   0.029445   0.080348   0.119308   0.102113
   194  H    0.046226   0.000000  -0.032016  -0.034579   0.141590   0.102434
   195  H    0.044826   0.000000  -0.054896   0.065653   0.119310   0.102116
   196  H    0.046225   0.000000   0.013913  -0.045040   0.141584   0.102433
   197  H    0.044825   0.000000  -0.084316  -0.014713   0.119297   0.102114
   198  H    0.046226   0.000000   0.045945  -0.010457   0.141591   0.102434
   199  H    0.044822   0.000000  -0.029445  -0.080348   0.119308   0.102113
   200  H    0.046226   0.000000   0.032016   0.034579   0.141590   0.102434
   201  H    0.044826   0.000000   0.054896  -0.065653   0.119310   0.102116
   202  H    0.046225   0.000000  -0.013913   0.045040   0.141584   0.102433
   203  H    0.044825   0.000000   0.084316   0.014713   0.119297   0.102114
   204  H    0.046226   0.000000  -0.045945   0.010457   0.141591   0.102434
       Tot  -0.000044   0.000000   0.000000  -0.000000   0.000084  -0.000044
 Hirshfeld charges with hydrogens summed into heavy atoms:
              Q-H       Q-CM5   
     1  C    0.007896   0.011271
     2  C    0.004648   0.008994
     3  C    0.007893   0.011267
     4  C    0.004645   0.008990
     5  C    0.007892   0.011266
     6  C    0.004645   0.008990
     7  C    0.007896   0.011271
     8  C    0.004648   0.008994
     9  C    0.007893   0.011267
    10  C    0.004645   0.008990
    11  C    0.007892   0.011266
    12  C    0.004645   0.008990
    13  C    0.001632   0.010125
    14  C   -0.003327  -0.010372
    15  C    0.001630   0.010123
    16  C   -0.003326  -0.010371
    17  C    0.001641   0.010134
    18  C   -0.003320  -0.010365
    19  C    0.001632   0.010125
    20  C   -0.003327  -0.010372
    21  C    0.001630   0.010123
    22  C   -0.003326  -0.010371
    23  C    0.001641   0.010134
    24  C   -0.003320  -0.010365
    25  C   -0.001354  -0.005536
    26  C   -0.001648  -0.005794
    27  C   -0.001351  -0.005533
    28  C   -0.001641  -0.005787
    29  C   -0.001346  -0.005528
    30  C   -0.001651  -0.005797
    31  C   -0.001354  -0.005536
    32  C   -0.001648  -0.005794
    33  C   -0.001351  -0.005533
    34  C   -0.001641  -0.005787
    35  C   -0.001346  -0.005528
    36  C   -0.001651  -0.005797
    37  C   -0.000236  -0.000588
    38  C   -0.000586  -0.000817
    39  C   -0.000226  -0.000578
    40  C   -0.000587  -0.000819
    41  C   -0.000230  -0.000582
    42  C   -0.000590  -0.000822
    43  C   -0.000236  -0.000588
    44  C   -0.000586  -0.000817
    45  C   -0.000226  -0.000578
    46  C   -0.000587  -0.000819
    47  C   -0.000230  -0.000582
    48  C   -0.000590  -0.000822
    49  C   -0.000575  -0.000749
    50  C    0.000143   0.000086
    51  C   -0.000573  -0.000747
    52  C    0.000144   0.000087
    53  C   -0.000572  -0.000746
    54  C    0.000143   0.000086
    55  C   -0.000575  -0.000749
    56  C    0.000143   0.000086
    57  C   -0.000573  -0.000747
    58  C    0.000144   0.000087
    59  C   -0.000572  -0.000746
    60  C    0.000143   0.000086
    61  C   -0.001931  -0.001944
    62  C   -0.001978  -0.001989
    63  C   -0.001927  -0.001940
    64  C   -0.001975  -0.001986
    65  C   -0.001931  -0.001944
    66  C   -0.001977  -0.001989
    67  C   -0.001931  -0.001944
    68  C   -0.001978  -0.001989
    69  C   -0.001927  -0.001940
    70  C   -0.001975  -0.001986
    71  C   -0.001931  -0.001944
    72  C   -0.001977  -0.001989
    73  C   -0.001507  -0.001509
    74  C   -0.001200  -0.001202
    75  C   -0.001514  -0.001516
    76  C   -0.001199  -0.001200
    77  C   -0.001514  -0.001516
    78  C   -0.001199  -0.001200
    79  C   -0.001507  -0.001509
    80  C   -0.001200  -0.001202
    81  C   -0.001514  -0.001516
    82  C   -0.001199  -0.001200
    83  C   -0.001514  -0.001516
    84  C   -0.001199  -0.001200
    85  C   -0.001199  -0.001200
    86  C   -0.001512  -0.001515
    87  C   -0.001211  -0.001213
    88  C   -0.001514  -0.001516
    89  C   -0.001195  -0.001196
    90  C   -0.001510  -0.001512
    91  C   -0.001199  -0.001200
    92  C   -0.001512  -0.001515
    93  C   -0.001211  -0.001213
    94  C   -0.001514  -0.001516
    95  C   -0.001195  -0.001196
    96  C   -0.001510  -0.001512
    97  C   -0.001985  -0.001996
    98  C   -0.001935  -0.001948
    99  C   -0.001975  -0.001986
   100  C   -0.001921  -0.001933
   101  C   -0.001970  -0.001982
   102  C   -0.001925  -0.001938
   103  C   -0.001985  -0.001996
   104  C   -0.001935  -0.001948
   105  C   -0.001975  -0.001986
   106  C   -0.001921  -0.001933
   107  C   -0.001970  -0.001982
   108  C   -0.001925  -0.001938
   109  C    0.000148   0.000091
   110  C   -0.000575  -0.000749
   111  C    0.000149   0.000092
   112  C   -0.000572  -0.000745
   113  C    0.000143   0.000086
   114  C   -0.000585  -0.000758
   115  C    0.000148   0.000091
   116  C   -0.000575  -0.000749
   117  C    0.000149   0.000092
   118  C   -0.000572  -0.000745
   119  C    0.000143   0.000086
   120  C   -0.000585  -0.000758
   121  C   -0.000584  -0.000815
   122  C   -0.000225  -0.000577
   123  C   -0.000586  -0.000818
   124  C   -0.000229  -0.000581
   125  C   -0.000590  -0.000821
   126  C   -0.000227  -0.000578
   127  C   -0.000584  -0.000815
   128  C   -0.000225  -0.000577
   129  C   -0.000586  -0.000818
   130  C   -0.000229  -0.000581
   131  C   -0.000590  -0.000821
   132  C   -0.000227  -0.000578
   133  C   -0.001643  -0.005788
   134  C   -0.001346  -0.005528
   135  C   -0.001642  -0.005788
   136  C   -0.001347  -0.005529
   137  C   -0.001645  -0.005790
   138  C   -0.001344  -0.005526
   139  C   -0.001643  -0.005788
   140  C   -0.001346  -0.005528
   141  C   -0.001642  -0.005788
   142  C   -0.001347  -0.005529
   143  C   -0.001645  -0.005790
   144  C   -0.001344  -0.005526
   145  C   -0.003323  -0.010367
   146  C    0.001635   0.010127
   147  C   -0.003326  -0.010371
   148  C    0.001638   0.010131
   149  C   -0.003322  -0.010367
   150  C    0.001643   0.010136
   151  C   -0.003323  -0.010367
   152  C    0.001635   0.010127
   153  C   -0.003326  -0.010371
   154  C    0.001638   0.010131
   155  C   -0.003322  -0.010367
   156  C    0.001643   0.010136
   157  C    0.004646   0.008992
   158  C    0.007890   0.011265
   159  C    0.004648   0.008994
   160  C    0.007894   0.011268
   161  C    0.004652   0.008998
   162  C    0.007897   0.011272
   163  C    0.004646   0.008992
   164  C    0.007890   0.011265
   165  C    0.004648   0.008994
   166  C    0.007894   0.011268
   167  C    0.004652   0.008998
   168  C    0.007897   0.011272
 
 EQQ=  0.00000000000     EQD=  0.00000000000     EDD= 0.367161151182E-01
 EQQ+QD+DD= 0.367161151182E-01
 
 1\1\GINC-CU07\SP\RB3LYP\6-311G(d)\C168H36\WANG\08-Jul-2025\0\\# B3LYP/
 6-311G* Pop=Hirshfeld NOSYMM\\From ../../cnt_12_6-1_opt.out\\0,1\C,0,6
 .387065,-0.008499,0.020276\C,0,6.282763,1.335693,0.271832\C,0,3.200128
 ,5.52593,0.019856\C,0,1.983953,6.107816,0.271511\C,0,-3.186449,5.53499
 4,0.020286\C,0,-4.29859,4.772879,0.272005\C,0,-6.387065,0.008499,0.020
 276\C,0,-6.282763,-1.335693,0.271832\C,0,-3.200128,-5.52593,0.019856\C
 ,0,-1.983953,-6.107816,0.271511\C,0,3.186449,-5.534994,0.020286\C,0,4.
 29859,-4.772879,0.272005\C,0,4.941043,3.944803,0.822332\C,0,3.948037,4
 .912623,1.07058\C,0,-0.946322,6.251303,0.822467\C,0,-2.281028,5.875546
 ,1.070886\C,0,-5.887759,2.306667,0.822738\C,0,-6.229508,0.962815,1.070
 998\C,0,-4.941043,-3.944803,0.822332\C,0,-3.948037,-4.912623,1.07058\C
 ,0,0.946322,-6.251303,0.822467\C,0,2.281028,-5.875546,1.070886\C,0,5.8
 87759,-2.306667,0.822738\C,0,6.229508,-0.962815,1.070998\C,0,1.435989,
 6.158429,1.588728\C,0,0.006634,6.298683,1.845921\C,0,-4.616153,4.32330
 2,1.589178\C,0,-5.45228,3.155523,1.846278\C,0,-6.052178,-1.835595,1.58
 8958\C,0,-5.45873,-3.143524,1.845938\C,0,-1.435989,-6.158429,1.588728\
 C,0,-0.006634,-6.298683,1.845921\C,0,4.616153,-4.323302,1.589178\C,0,5
 .45228,-3.155523,1.846278\C,0,6.052178,1.835595,1.588958\C,0,5.45873,3
 .143524,1.845938\C,0,-2.705592,5.640427,2.411469\C,0,-3.895649,4.88902
 ,2.667036\C,0,-6.238041,0.477401,2.411525\C,0,-6.182134,-0.928944,2.66
 6929\C,0,-3.532159,-5.162983,2.411133\C,0,-2.28632,-5.817776,2.66662\C
 ,0,2.705592,-5.640427,2.411469\C,0,3.895649,-4.88902,2.667036\C,0,6.23
 8041,-0.477401,2.411525\C,0,6.182134,0.928944,2.666929\C,0,3.532159,5.
 162983,2.411133\C,0,2.28632,5.817776,2.66662\C,0,-5.625603,2.718798,3.
 205401\C,0,-6.072043,1.398509,3.479722\C,0,-5.16731,-3.512196,3.205032
 \C,0,-4.247094,-4.558935,3.479327\C,0,0.45816,-6.230694,3.205082\C,0,1
 .824768,-5.957251,3.479548\C,0,5.625603,-2.718798,3.205401\C,0,6.07204
 3,-1.398509,3.479722\C,0,5.16731,3.512196,3.205032\C,0,4.247094,4.5589
 35,3.479327\C,0,-0.45816,6.230694,3.205082\C,0,-1.824768,5.957251,3.47
 9548\C,0,-6.076024,-1.384904,4.025071\C,0,-5.621758,-2.702353,4.289583
 \C,0,-1.838579,-5.954014,4.024825\C,0,-0.470529,-6.219296,4.289505\C,0
 ,4.237286,-4.569202,4.025242\C,0,5.151108,-3.517137,4.289895\C,0,6.076
 024,1.384904,4.025071\C,0,5.621758,2.702353,4.289583\C,0,1.838579,5.95
 4014,4.024825\C,0,0.470529,6.219296,4.289505\C,0,-4.237286,4.569202,4.
 025242\C,0,-5.151108,3.517137,4.289895\C,0,-3.888366,-4.864483,4.83233
 2\C,0,-2.701669,-5.615565,5.097347\C,0,2.268567,-5.799248,4.832605\C,0
 ,3.512338,-5.147111,5.09774\C,0,6.15701,-0.934997,4.832713\C,0,6.21417
 2,0.468259,5.097672\C,0,3.888366,4.864483,4.832332\C,0,2.701669,5.6155
 65,5.097347\C,0,-2.268567,5.799248,4.832605\C,0,-3.512338,5.147111,5.0
 9774\C,0,-6.15701,0.934997,4.832713\C,0,-6.214172,-0.468259,5.097672\C
 ,0,-0.002605,-6.231545,5.636489\C,0,1.392403,-6.069589,5.901615\C,0,5.
 395524,-3.117846,5.636846\C,0,5.952884,-1.828773,5.90184\C,0,5.398294,
 3.113819,5.636499\C,0,4.560598,4.241064,5.901438\C,0,0.002605,6.231545
 ,5.636489\C,0,-1.392403,6.069589,5.901615\C,0,-5.395524,3.117846,5.636
 846\C,0,-5.952884,1.828773,5.90184\C,0,-5.398294,-3.113819,5.636499\C,
 0,-4.560598,-4.241064,5.901438\C,0,3.89205,-4.873422,6.444715\C,0,4.87
 2993,-3.883616,6.709386\C,0,6.16707,0.934113,6.444576\C,0,5.800402,2.2
 78584,6.709103\C,0,2.27483,5.807799,6.444297\C,0,0.927136,6.162322,6.7
 08977\C,0,-3.89205,4.873422,6.444715\C,0,-4.872993,3.883616,6.709386\C
 ,0,-6.16707,-0.934113,6.444576\C,0,-5.800402,-2.278584,6.709103\C,0,-2
 .27483,-5.807799,6.444297\C,0,-0.927136,-6.162322,6.708977\C,0,6.07719
 ,-1.374225,7.254849\C,0,6.247859,0.009012,7.529119\C,0,4.229286,4.5761
 81,7.254438\C,0,3.116609,5.415491,7.52877\C,0,-1.848081,5.950092,7.254
 676\C,0,-3.131203,5.406054,7.529146\C,0,-6.07719,1.374225,7.254849\C,0
 ,-6.247859,-0.009012,7.529119\C,0,-4.229286,-4.576181,7.254438\C,0,-3.
 116609,-5.415491,7.52877\C,0,1.848081,-5.950092,7.254676\C,0,3.131203,
 -5.406054,7.529146\C,0,5.631282,2.715095,8.067251\C,0,4.885336,3.90863
 8,8.322627\C,0,0.464704,6.234079,8.067177\C,0,-0.941852,6.184555,8.322
 769\C,0,-5.166137,3.518801,8.067585\C,0,-5.826769,2.276044,8.323054\C,
 0,-5.631282,-2.715095,8.067251\C,0,-4.885336,-3.908638,8.322627\C,0,-0
 .464704,-6.234079,8.067177\C,0,0.941852,-6.184555,8.322769\C,0,5.16613
 7,-3.518801,8.067585\C,0,5.826769,-2.276044,8.323054\C,0,2.727386,5.67
 8679,8.887888\C,0,1.378691,6.1724,9.145027\C,0,-3.553513,5.20037,8.888
 311\C,0,-4.655418,4.279211,9.145487\C,0,-6.281,-0.477787,8.888221\C,0,
 -6.034542,-1.89273,9.145217\C,0,-2.727386,-5.678679,8.887888\C,0,-1.37
 8691,-6.1724,9.145027\C,0,3.553513,-5.20037,8.888311\C,0,4.655418,-4.2
 79211,9.145487\C,0,6.281,0.477787,8.888221\C,0,6.034542,1.89273,9.1452
 17\C,0,-1.425081,6.13963,9.663359\C,0,-2.739526,5.698166,9.911769\C,0,
 -6.029429,1.834912,9.6636\C,0,-6.30475,0.475895,9.911822\C,0,-4.60479,
 -4.304856,9.663157\C,0,-3.565414,-5.222655,9.91142\C,0,1.425081,-6.139
 63,9.663359\C,0,2.739526,-5.698166,9.911769\C,0,6.029429,-1.834912,9.6
 636\C,0,6.30475,-0.475895,9.911822\C,0,4.60479,4.304856,9.663157\C,0,3
 .565414,5.222655,9.91142\C,0,-5.079713,3.928739,10.462689\C,0,-5.75691
 1,2.762942,10.714335\C,0,-5.943452,-2.435644,10.462346\C,0,-5.272484,-
 3.605062,10.713894\C,0,-0.863096,-6.364857,10.462225\C,0,0.485101,-6.3
 68161,10.713968\C,0,5.079713,-3.928739,10.462689\C,0,5.756911,-2.76294
 2,10.714335\C,0,5.943452,2.435644,10.462346\C,0,5.272484,3.605062,10.7
 13894\C,0,0.863096,6.364857,10.462225\C,0,-0.485101,6.368161,10.713968
 \H,0,6.494242,-0.363499,-1.001717\H,0,6.31917,2.027692,-0.563335\H,0,3
 .560931,5.440945,-1.00219\H,0,1.402719,6.485151,-0.563639\H,0,-2.93264
 1,5.80518,-1.001752\H,0,-4.916251,4.458532,-0.563085\H,0,-6.494242,0.3
 63499,-1.001717\H,0,-6.31917,-2.027692,-0.563335\H,0,-3.560931,-5.4409
 45,-1.00219\H,0,-1.402719,-6.485151,-0.563639\H,0,2.932641,-5.80518,-1
 .001752\H,0,4.916251,-4.458532,-0.563085\H,0,5.163026,3.713575,-0.2144
 5\H,0,-0.635248,6.328059,-0.214355\H,0,-5.798693,2.614564,-0.214045\H,
 0,-5.163026,-3.713575,-0.21445\H,0,0.635248,-6.328059,-0.214355\H,0,5.
 798693,-2.614564,-0.214045\H,0,-3.039764,5.5863,10.948591\H,0,-6.35805
 2,0.159812,10.948601\H,0,-3.318404,-5.426885,10.948208\H,0,3.039764,-5
 .5863,10.948591\H,0,6.358052,-0.159812,10.948601\H,0,3.318404,5.426885
 ,10.948208\H,0,-4.811942,4.567866,11.297855\H,0,-6.007185,2.4895,11.73
 6379\H,0,-6.36327,-1.884362,11.297532\H,0,-5.161006,-3.958713,11.73589
 4\H,0,-1.550548,-6.45285,11.297317\H,0,0.846984,-6.448344,11.736021\H,
 0,4.811942,-4.567866,11.297855\H,0,6.007185,-2.4895,11.736379\H,0,6.36
 327,1.884362,11.297532\H,0,5.161006,3.958713,11.735894\H,0,1.550548,6.
 45285,11.297317\H,0,-0.846984,6.448344,11.736021\\Version=ES64L-G16Rev
 B.01\HF=-6425.7109272\RMSD=8.340e-09\Dipole=0.,0.,0.0000016\Quadrupole
 =-48.9975356,-49.0013047,97.9988403,0.0002774,0.,0.\PG=C02 [X(C168H36)
 ]\\@


 There was a great rattling of the words for the fewness of ideas.
                   -- Charles Baxter in Gryphon
 Job cpu time:       0 days 10 hours 43 minutes 32.4 seconds.
 Elapsed time:       0 days  0 hours 23 minutes  4.7 seconds.
 File lengths (MBytes):  RWF=   5253 Int=      0 D2E=      0 Chk=    563 Scr=      1
 Normal termination of Gaussian 16 at Tue Jul  8 16:37:19 2025.
