 Entering Gaussian System, Link 0=g16
 Initial command:
 /opt/software/g16/l1.exe "/tmp/5helicene_sgp-27846.tmp/Gau-40645.inp" -scrdir="/tmp/5helicene_sgp-27846.tmp/"
 Entering Link 1 = /opt/software/g16/l1.exe PID=     40646.
  
 Copyright (c) 1988-2017, Gaussian, Inc.  All Rights Reserved.
  
 This is part of the Gaussian(R) 16 program.  It is based on
 the Gaussian(R) 09 system (copyright 2009, Gaussian, Inc.),
 the Gaussian(R) 03 system (copyright 2003, Gaussian, Inc.),
 the Gaussian(R) 98 system (copyright 1998, Gaussian, Inc.),
 the Gaussian(R) 94 system (copyright 1995, Gaussian, Inc.),
 the Gaussian 92(TM) system (copyright 1992, Gaussian, Inc.),
 the Gaussian 90(TM) system (copyright 1990, Gaussian, Inc.),
 the Gaussian 88(TM) system (copyright 1988, Gaussian, Inc.),
 the Gaussian 86(TM) system (copyright 1986, Carnegie Mellon
 University), and the Gaussian 82(TM) system (copyright 1983,
 Carnegie Mellon University). Gaussian is a federally registered
 trademark of Gaussian, Inc.
  
 This software contains proprietary and confidential information,
 including trade secrets, belonging to Gaussian, Inc.
  
 This software is provided under written license and may be
 used, copied, transmitted, or stored only in accord with that
 written license.
  
 The following legend is applicable only to US Government
 contracts under FAR:
  
                    RESTRICTED RIGHTS LEGEND
  
 Use, reproduction and disclosure by the US Government is
 subject to restrictions as set forth in subparagraphs (a)
 and (c) of the Commercial Computer Software - Restricted
 Rights clause in FAR 52.227-19.
  
 Gaussian, Inc.
 340 Quinnipiac St., Bldg. 40, Wallingford CT 06492
  
  
 ---------------------------------------------------------------
 Warning -- This program may not be used in any manner that
 competes with the business of Gaussian, Inc. or will provide
 assistance to any competitor of Gaussian, Inc.  The licensee
 of this program is prohibited from giving any competitor of
 Gaussian, Inc. access to this program.  By using this program,
 the user acknowledges that Gaussian, Inc. is engaged in the
 business of creating and licensing software in the field of
 computational chemistry and represents and warrants to the
 licensee that it is not a competitor of Gaussian, Inc. and that
 it will not use this program in any manner prohibited above.
 ---------------------------------------------------------------
  

 Cite this work as:
 Gaussian 16, Revision B.01,
 M. J. Frisch, G. W. Trucks, H. B. Schlegel, G. E. Scuseria, 
 M. A. Robb, J. R. Cheeseman, G. Scalmani, V. Barone, 
 G. A. Petersson, H. Nakatsuji, X. Li, M. Caricato, A. V. Marenich, 
 J. Bloino, B. G. Janesko, R. Gomperts, B. Mennucci, H. P. Hratchian, 
 J. V. Ortiz, A. F. Izmaylov, J. L. Sonnenberg, D. Williams-Young, 
 F. Ding, F. Lipparini, F. Egidi, J. Goings, B. Peng, A. Petrone, 
 T. Henderson, D. Ranasinghe, V. G. Zakrzewski, J. Gao, N. Rega, 
 G. Zheng, W. Liang, M. Hada, M. Ehara, K. Toyota, R. Fukuda, 
 J. Hasegawa, M. Ishida, T. Nakajima, Y. Honda, O. Kitao, H. Nakai, 
 T. Vreven, K. Throssell, J. A. Montgomery, Jr., J. E. Peralta, 
 F. Ogliaro, M. J. Bearpark, J. J. Heyd, E. N. Brothers, K. N. Kudin, 
 V. N. Staroverov, T. A. Keith, R. Kobayashi, J. Normand, 
 K. Raghavachari, A. P. Rendell, J. C. Burant, S. S. Iyengar, 
 J. Tomasi, M. Cossi, J. M. Millam, M. Klene, C. Adamo, R. Cammi, 
 J. W. Ochterski, R. L. Martin, K. Morokuma, O. Farkas, 
 J. B. Foresman, and D. J. Fox, Gaussian, Inc., Wallingford CT, 2016.
 
 ******************************************
 Gaussian 16:  ES64L-G16RevB.01 20-Dec-2017
                 6-Jul-2025 
 ******************************************
 %nproc=18
 Will use up to   18 processors via shared memory.
 ------------------------------------
 # B3LYP/6-311G* Pop=Hirshfeld NOSYMM
 ------------------------------------
 1/38=1,172=1/1;
 2/12=2,15=1,17=6,18=5,40=1/2;
 3/5=4,6=6,7=1,11=2,25=1,30=1,74=-5/1,2,3;
 4//1;
 5/5=2,38=5/2;
 6/7=2,8=2,9=2,10=2,28=1,79=1/1;
 99/5=1,9=1/99;
 ----------------------------
 From ../../5helicene_opt.out
 ----------------------------
 Symbolic Z-matrix:
 Charge =  0 Multiplicity = 1
 6                    -2.37167  -0.20715   2.85602 
 6                    -1.19883  -0.04753   3.53597 
 6                    -2.4178   -0.01959   1.44554 
 6                     0.02797   0.10514   2.82999 
 6                    -1.23215   0.29789   0.72472 
 6                     0.03832   0.13237   1.40685 
 6                    -3.67367  -0.11509   0.76544 
 6                    -3.78704   0.18589  -0.55698 
 6                    -2.67577   0.74137  -1.26412 
 6                    -1.40583   0.85545  -0.61412 
 1                    -3.2986   -0.41674   3.38395 
 1                    -1.17203  -0.09736   4.62161 
 1                    -4.54042  -0.43916   1.33641 
 1                    -4.73949   0.08798  -1.07199 
 6                    -2.84938   1.2627   -2.57013 
 6                    -0.41503   1.63442  -1.26723 
 6                    -0.62205   2.16961  -2.52341 
 6                    -1.83887   1.95587  -3.20143 
 1                    -3.81575   1.1358   -3.05269 
 1                     0.52086   1.83236  -0.76076 
 1                     0.15793   2.76912  -2.98499 
 1                    -1.98975   2.36384  -4.19714 
 6                     2.45841   0.20534   2.93023 
 6                     1.25394   0.19191   3.56371 
 6                     2.52902  -0.00942   1.5187 
 6                     1.32314  -0.10499   0.75386 
 6                     3.78155  -0.21967   0.89056 
 6                     3.86117  -0.59847  -0.43244 
 6                     2.67367  -0.80378  -1.16302 
 6                     1.44301  -0.56376  -0.58411 
 1                     3.38412   0.29547   3.49319 
 1                     1.19729   0.24979   4.64802 
 1                     4.68375  -0.11127   1.48815 
 1                     4.82742  -0.77129  -0.89844 
 1                     0.54667  -0.75035  -1.16146 
 1                     2.72234  -1.1643   -2.18698 
 
                          Input orientation:                          
 ---------------------------------------------------------------------
 Center     Atomic      Atomic             Coordinates (Angstroms)
 Number     Number       Type             X           Y           Z
 ---------------------------------------------------------------------
      1          6           0       -2.371672   -0.207152    2.856024
      2          6           0       -1.198825   -0.047528    3.535966
      3          6           0       -2.417799   -0.019587    1.445542
      4          6           0        0.027968    0.105142    2.829985
      5          6           0       -1.232147    0.297893    0.724716
      6          6           0        0.038323    0.132372    1.406852
      7          6           0       -3.673671   -0.115091    0.765443
      8          6           0       -3.787038    0.185889   -0.556981
      9          6           0       -2.675770    0.741371   -1.264115
     10          6           0       -1.405830    0.855453   -0.614124
     11          1           0       -3.298599   -0.416743    3.383953
     12          1           0       -1.172033   -0.097359    4.621614
     13          1           0       -4.540420   -0.439163    1.336413
     14          1           0       -4.739491    0.087979   -1.071992
     15          6           0       -2.849381    1.262696   -2.570133
     16          6           0       -0.415029    1.634422   -1.267226
     17          6           0       -0.622052    2.169606   -2.523415
     18          6           0       -1.838874    1.955866   -3.201429
     19          1           0       -3.815748    1.135799   -3.052693
     20          1           0        0.520856    1.832359   -0.760755
     21          1           0        0.157933    2.769116   -2.984989
     22          1           0       -1.989746    2.363842   -4.197145
     23          6           0        2.458411    0.205335    2.930231
     24          6           0        1.253935    0.191908    3.563710
     25          6           0        2.529017   -0.009416    1.518704
     26          6           0        1.323139   -0.104990    0.753858
     27          6           0        3.781547   -0.219673    0.890562
     28          6           0        3.861173   -0.598466   -0.432440
     29          6           0        2.673673   -0.803778   -1.163017
     30          6           0        1.443005   -0.563761   -0.584110
     31          1           0        3.384118    0.295474    3.493194
     32          1           0        1.197291    0.249789    4.648017
     33          1           0        4.683746   -0.111267    1.488154
     34          1           0        4.827420   -0.771291   -0.898441
     35          1           0        0.546674   -0.750350   -1.161461
     36          1           0        2.722339   -1.164304   -2.186976
 ---------------------------------------------------------------------
                    Distance matrix (angstroms):
                    1          2          3          4          5
     1  C    0.000000
     2  C    1.365053   0.000000
     3  C    1.423646   2.420031   0.000000
     4  C    2.420016   1.423636   2.813186   0.000000
     5  C    2.469020   2.832588   1.423430   2.461138   0.000000
     6  C    2.832570   2.469013   2.461122   1.423431   1.451482
     7  C    2.464590   3.715538   1.431387   4.244169   2.476541
     8  C    3.715689   4.848252   2.434571   5.102189   2.860552
     9  C    4.238834   5.083749   2.826278   4.947387   2.497232
    10  C    3.755517   4.252232   2.456013   3.805342   1.460661
    11  H    1.087121   2.137400   2.165867   3.412520   3.442742
    12  H    2.137404   1.087121   3.412538   2.165859   3.917353
    13  H    2.658292   4.019660   2.166442   4.837065   3.444139
    14  H    4.595974   5.812741   3.426339   6.160713   3.946351
    15  C    5.641971   6.459525   4.237471   6.227387   3.795039
    16  C    4.921487   5.149169   3.755788   4.395689   2.534132
    17  C    6.135838   6.477997   4.875438   5.774377   3.798142
    18  C    6.454088   7.058027   5.082510   6.579379   4.304835
    19  H    6.229110   7.187418   4.850082   7.102275   4.652515
    20  H    5.060377   4.995307   4.114990   4.014926   2.763011
    21  H    7.026699   7.231675   5.834455   6.397466   4.669173
    22  H    7.516852   8.138874   6.140349   7.652023   5.391365
    23  C    4.848232   3.715674   5.102187   2.434572   4.300358
    24  C    3.715521   2.464575   4.244172   1.431389   3.775145
    25  C    5.083727   4.238821   4.947367   2.826274   3.856321
    26  C    4.252196   3.755493   3.805304   2.455998   2.587016
    27  C    6.459512   5.641977   6.227353   4.237478   5.043065
    28  C    7.058008   6.454096   6.579317   5.082513   5.299470
    29  C    6.477975   6.135845   5.774307   4.875444   4.475784
    30  C    5.149122   4.921462   4.395614   3.755770   3.100308
    31  H    5.812722   4.595960   6.160713   3.426341   5.382785
    32  H    4.019643   2.658275   4.837074   2.166444   4.614843
    33  H    7.187432   6.229144   7.102265   4.850115   5.978966
    34  H    8.138869   7.516876   7.651961   6.140361   6.363658
    35  H    4.995197   5.060291   4.014795   4.114920   2.796548
    36  H    7.231662   7.026719   6.397389   5.834469   5.123859
                    6          7          8          9         10
     6  C    0.000000
     7  C    3.775122   0.000000
     8  C    4.300336   1.360973   0.000000
     9  C    3.856325   2.418355   1.429516   0.000000
    10  C    2.587038   2.826352   2.474214   1.431171   0.000000
    11  H    3.917334   2.662380   4.016553   4.830495   4.602790
    12  H    3.442736   4.596582   5.808298   6.132414   5.326863
    13  H    4.614813   1.087328   2.131482   3.410766   3.912324
    14  H    5.382764   2.133864   1.087193   2.173195   3.451370
    15  C    5.043102   3.701867   2.468095   1.416899   2.464885
    16  C    3.100383   4.220342   3.738066   2.430741   1.419515
    17  C    4.475870   5.034760   4.221271   2.800616   2.446773
    18  C    5.299552   4.836467   3.731121   2.434867   2.844747
    19  H    5.978986   4.020333   2.670530   2.157344   3.439901
    20  H    2.796661   4.869897   4.616312   3.414973   2.165171
    21  H    5.123963   6.088151   5.303874   3.886262   3.424684
    22  H    6.363749   5.797240   4.607009   3.421360   3.931187
    23  C    2.860565   6.510869   7.153087   6.651292   5.283698
    24  C    2.476549   5.675020   6.510879   6.249191   4.996893
    25  C    2.497233   6.249153   6.651253   5.949586   4.558506
    26  C    1.460648   4.996834   5.283637   4.558488   3.200171
    27  C    3.795025   7.457001   7.716433   6.874822   5.507164
    28  C    4.304800   7.644766   7.689334   6.724468   5.467011
    29  C    3.798114   6.669485   6.564107   5.569044   4.438094
    30  C    2.534100   5.310647   5.283565   4.373795   3.182912
    31  H    3.946362   7.577702   8.236589   7.717063   6.334606
    32  H    3.444146   6.239695   7.206915   7.084882   5.901965
    33  H    4.652518   8.388608   8.719235   7.903446   6.514373
    34  H    5.391329   8.687212   8.674196   7.662880   6.448297
    35  H    2.762942   4.682716   4.474707   3.552452   2.586591
    36  H    4.669144   7.122259   6.844844   5.798521   4.857475
                   11         12         13         14         15
    11  H    0.000000
    12  H    2.481148   0.000000
    13  H    2.394795   4.717564   0.000000
    14  H    4.710240   6.721477   2.473443   0.000000
    15  C    6.202697   7.508959   4.584434   2.682704   0.000000
    16  C    5.844290   6.184703   5.300711   4.596800   2.786004
    17  C    6.982127   7.516186   6.087492   4.836642   2.405340
    18  C    7.150338   8.115443   5.798838   4.054267   1.378457
    19  H    6.641404   8.210048   4.719100   2.423717   1.087581
    20  H    6.068385   5.963185   5.930804   5.550764   3.867410
    21  H    7.915853   8.236862   7.144375   5.901933   3.389003
    22  H    8.180330   9.192207   6.706940   4.744179   2.144449
    23  C    5.808271   4.016531   7.206890   8.236586   7.716519
    24  C    4.596557   2.662359   6.239684   7.577710   7.457065
    25  C    6.132388   4.830482   7.084833   7.717020   6.874883
    26  C    5.326824   4.602769   5.901895   6.334544   5.507214
    27  C    7.508948   6.202714   8.336792   8.749535   7.625158
    28  C    8.115431   7.150366   8.587257   8.651685   7.284586
    29  C    7.516167   6.982151   7.643509   7.467163   6.062542
    30  C    6.184654   5.844272   6.285325   6.235868   5.069991
    31  H    6.721450   4.710219   8.245587   9.320783   8.749626
    32  H    4.717536   2.394766   6.660533   8.245609   8.336859
    33  H    8.210067   6.641454   9.231239   9.766854   8.666341
    34  H    9.192213   8.180381   9.636457   9.606990   8.115721
    35  H    5.963070   6.068304   5.675803   5.352975   4.191647
    36  H    8.236856   7.915896   8.104799   7.647896   6.089434
                   16         17         18         19         20
    16  C    0.000000
    17  C    1.381047   0.000000
    18  C    2.423180   1.409271   0.000000
    19  H    3.873165   3.398321   2.145382   0.000000
    20  H    1.082392   2.127662   3.397127   4.954221   0.000000
    21  H    2.136943   1.086664   2.166901   4.296795   2.440583
    22  H    3.405321   2.170181   1.086580   2.480351   4.288866
    23  C    5.283710   6.564287   7.689491   8.719301   4.474897
    24  C    5.310765   6.669611   7.644875   8.388647   4.682892
    25  C    4.373902   5.569210   6.724616   7.903495   3.552574
    26  C    3.183012   4.438251   5.467152   6.514411   2.586703
    27  C    5.070007   6.062638   7.284675   8.666340   4.191633
    28  C    4.895770   5.668660   6.832455   8.295090   4.144203
    29  C    3.936465   4.642575   5.668672   7.031744   3.427193
    30  C    2.958200   3.936580   4.895877   6.052841   2.573510
    31  H    6.236016   7.467352   8.651851   9.766926   5.353164
    32  H    6.285450   7.643634   8.587363   9.231279   5.675994
    33  H    6.052855   7.031825   8.295167   9.716783   5.115166
    34  H    5.779855   6.402043   7.561786   9.109454   5.034327
    35  H    2.573557   3.427387   4.144383   5.115178   2.613736
    36  H    4.303706   4.734247   5.618651   6.984735   3.982540
                   21         22         23         24         25
    21  H    0.000000
    22  H    2.499219   0.000000
    23  C    6.845071   8.674373   0.000000
    24  C    7.122407   8.687326   1.360970   0.000000
    25  C    5.798752   7.663061   1.429514   2.418350   0.000000
    26  C    4.857692   6.448470   2.474216   2.826341   1.431176
    27  C    6.089609   8.115857   2.468111   3.701884   1.416899
    28  C    5.618728   7.561847   3.731138   4.836486   2.434868
    29  C    4.734353   6.402127   4.221294   5.034779   2.800636
    30  C    4.303917   5.780023   3.738068   4.220331   2.430750
    31  H    7.648139   9.607178   1.087192   2.133865   2.173193
    32  H    8.104940   9.636561   2.131476   1.087327   3.410760
    33  H    6.984884   9.109571   2.670569   4.020379   2.157351
    34  H    6.220311   8.196600   4.607031   5.797270   3.421359
    35  H    3.982840   5.034580   4.616277   4.869837   3.414960
    36  H    4.762856   6.220317   5.303902   6.088178   3.886284
                   26         27         28         29         30
    26  C    0.000000
    27  C    2.464875   0.000000
    28  C    2.844721   1.378462   0.000000
    29  C    2.446765   2.405359   1.409274   0.000000
    30  C    1.419506   2.786007   2.423168   1.381045   0.000000
    31  H    3.451372   2.682726   4.054296   4.836671   4.596805
    32  H    3.912311   4.584457   5.798866   6.087514   5.300697
    33  H    3.439900   1.087580   2.145384   3.398334   3.873168
    34  H    3.931162   2.144450   1.086581   2.170180   3.405310
    35  H    2.165141   3.867405   3.397123   2.127670   1.082386
    36  H    3.424677   3.389025   2.166913   1.086664   2.136943
                   31         32         33         34         35
    31  H    0.000000
    32  H    2.473442   0.000000
    33  H    2.423769   4.719159   0.000000
    34  H    4.744214   6.706984   2.480345   0.000000
    35  H    5.550734   5.930735   4.954216   4.288870   0.000000
    36  H    5.901969   7.144408   4.296811   2.499229   2.440606
                   36
    36  H    0.000000
 Symmetry turned off by external request.
 Stoichiometry    C22H14
 Framework group  C1[X(C22H14)]
 Deg. of freedom   102
 Full point group                 C1      NOp   1
 Rotational constants (GHZ):           0.4479917           0.2774227           0.1843906
 Standard basis: 6-311G(d) (5D, 7F)
   438 basis functions,   774 primitive gaussians,   460 cartesian basis functions
    73 alpha electrons       73 beta electrons
       nuclear repulsion energy      1598.6082533718 Hartrees.
 NAtoms=   36 NActive=   36 NUniq=   36 SFac= 1.00D+00 NAtFMM=   60 NAOKFM=F Big=F
 Integral buffers will be    131072 words long.
 Raffenetti 2 integral format.
 Two-electron integral symmetry is turned off.
 One-electron integrals computed using PRISM.
 NBasis=   438 RedAO= T EigKep=  6.19D-05  NBF=   438
 NBsUse=   438 1.00D-06 EigRej= -1.00D+00 NBFU=   438
 ExpMin= 1.03D-01 ExpMax= 4.56D+03 ExpMxC= 6.82D+02 IAcc=3 IRadAn=         5 AccDes= 0.00D+00
 Harris functional with IExCor=  402 and IRadAn=       5 diagonalized for initial guess.
 HarFok:  IExCor=  402 AccDes= 0.00D+00 IRadAn=         5 IDoV= 1 UseB2=F ITyADJ=14
 ICtDFT=  3500011 ScaDFX=  1.000000  1.000000  1.000000  1.000000
 FoFCou: FMM=F IPFlag=           0 FMFlag=      100000 FMFlg1=           0
         NFxFlg=           0 DoJE=T BraDBF=F KetDBF=T FulRan=T
         wScrn=  0.000000 ICntrl=       500 IOpCl=  0 I1Cent=   200000004 NGrid=           0
         NMat0=    1 NMatS0=      1 NMatT0=    0 NMatD0=    1 NMtDS0=    0 NMtDT0=    0
 Symmetry not used in FoFCou.
 Requested convergence on RMS density matrix=1.00D-08 within 128 cycles.
 Requested convergence on MAX density matrix=1.00D-06.
 Requested convergence on             energy=1.00D-06.
 No special actions if energy rises.
 Integral accuracy reduced to 1.0D-05 until final iterations.
 Initial convergence to 1.0D-05 achieved.  Increase integral accuracy.
 SCF Done:  E(RB3LYP) =  -846.971989639     A.U. after   14 cycles
            NFock= 14  Conv=0.64D-08     -V/T= 2.0044

 **********************************************************************

            Population analysis using the SCF Density.

 **********************************************************************

 Alpha  occ. eigenvalues --  -10.19596 -10.19560 -10.19070 -10.19069 -10.18884
 Alpha  occ. eigenvalues --  -10.18883 -10.18676 -10.18676 -10.17878 -10.17837
 Alpha  occ. eigenvalues --  -10.17837 -10.17812 -10.17765 -10.17765 -10.17650
 Alpha  occ. eigenvalues --  -10.17650 -10.17586 -10.17586 -10.17468 -10.17468
 Alpha  occ. eigenvalues --  -10.17333 -10.17332  -0.89449  -0.87343  -0.85218
 Alpha  occ. eigenvalues --   -0.82515  -0.80095  -0.78903  -0.76450  -0.75087
 Alpha  occ. eigenvalues --   -0.73928  -0.72243  -0.71423  -0.64463  -0.64128
 Alpha  occ. eigenvalues --   -0.61686  -0.61337  -0.61337  -0.58029  -0.55723
 Alpha  occ. eigenvalues --   -0.53368  -0.53064  -0.50447  -0.50180  -0.49670
 Alpha  occ. eigenvalues --   -0.47065  -0.46663  -0.45678  -0.43625  -0.43586
 Alpha  occ. eigenvalues --   -0.43562  -0.42858  -0.42378  -0.41866  -0.40537
 Alpha  occ. eigenvalues --   -0.40393  -0.39268  -0.39201  -0.37402  -0.36965
 Alpha  occ. eigenvalues --   -0.36403  -0.35350  -0.34872  -0.33500  -0.33168
 Alpha  occ. eigenvalues --   -0.32671  -0.30200  -0.29203  -0.28035  -0.25662
 Alpha  occ. eigenvalues --   -0.23405  -0.21577  -0.21061
 Alpha virt. eigenvalues --   -0.05843  -0.05771  -0.03098  -0.00981   0.01307
 Alpha virt. eigenvalues --    0.02804   0.04035   0.04826   0.05129   0.05333
 Alpha virt. eigenvalues --    0.06407   0.07115   0.08295   0.08847   0.08900
 Alpha virt. eigenvalues --    0.10062   0.10645   0.11723   0.11754   0.13358
 Alpha virt. eigenvalues --    0.13743   0.14509   0.16184   0.17080   0.19082
 Alpha virt. eigenvalues --    0.19967   0.22686   0.23766   0.24553   0.24592
 Alpha virt. eigenvalues --    0.25666   0.25754   0.27896   0.28021   0.28379
 Alpha virt. eigenvalues --    0.28400   0.28981   0.30052   0.30445   0.31394
 Alpha virt. eigenvalues --    0.33103   0.33601   0.34682   0.36707   0.37036
 Alpha virt. eigenvalues --    0.37279   0.37833   0.38130   0.38376   0.38454
 Alpha virt. eigenvalues --    0.38910   0.39505   0.39970   0.40653   0.40822
 Alpha virt. eigenvalues --    0.41206   0.42153   0.42401   0.42958   0.43160
 Alpha virt. eigenvalues --    0.43463   0.44190   0.44202   0.44293   0.45496
 Alpha virt. eigenvalues --    0.45898   0.46211   0.46835   0.47119   0.47560
 Alpha virt. eigenvalues --    0.47633   0.48482   0.49229   0.49528   0.50818
 Alpha virt. eigenvalues --    0.51522   0.52328   0.52339   0.52764   0.52975
 Alpha virt. eigenvalues --    0.53381   0.53780   0.54569   0.56450   0.57800
 Alpha virt. eigenvalues --    0.58352   0.59211   0.60368   0.60649   0.60841
 Alpha virt. eigenvalues --    0.61248   0.61964   0.62294   0.62424   0.63232
 Alpha virt. eigenvalues --    0.64252   0.65003   0.65356   0.66314   0.66993
 Alpha virt. eigenvalues --    0.67799   0.67883   0.69223   0.69521   0.70701
 Alpha virt. eigenvalues --    0.73040   0.73695   0.73829   0.74269   0.75537
 Alpha virt. eigenvalues --    0.75750   0.75800   0.76326   0.77551   0.78287
 Alpha virt. eigenvalues --    0.79383   0.80139   0.80218   0.81153   0.81328
 Alpha virt. eigenvalues --    0.82711   0.83670   0.83972   0.84769   0.86140
 Alpha virt. eigenvalues --    0.86897   0.87045   0.87853   0.89187   0.89794
 Alpha virt. eigenvalues --    0.90177   0.92266   0.92859   0.93499   0.94966
 Alpha virt. eigenvalues --    0.96686   0.97556   0.98363   0.99488   1.00038
 Alpha virt. eigenvalues --    1.01369   1.01426   1.02595   1.05471   1.06639
 Alpha virt. eigenvalues --    1.06931   1.07585   1.07748   1.09860   1.10943
 Alpha virt. eigenvalues --    1.12178   1.14277   1.15879   1.16188   1.18442
 Alpha virt. eigenvalues --    1.18608   1.18985   1.20850   1.21931   1.22254
 Alpha virt. eigenvalues --    1.23491   1.23820   1.25022   1.27769   1.28104
 Alpha virt. eigenvalues --    1.30208   1.30318   1.30802   1.33760   1.34578
 Alpha virt. eigenvalues --    1.34939   1.36916   1.38846   1.42092   1.42176
 Alpha virt. eigenvalues --    1.43541   1.43687   1.45745   1.46810   1.47447
 Alpha virt. eigenvalues --    1.48127   1.48475   1.48936   1.50340   1.51869
 Alpha virt. eigenvalues --    1.52093   1.54976   1.55332   1.57155   1.57165
 Alpha virt. eigenvalues --    1.59822   1.63025   1.63158   1.65979   1.66170
 Alpha virt. eigenvalues --    1.68134   1.69462   1.71780   1.71971   1.75693
 Alpha virt. eigenvalues --    1.76210   1.77324   1.78698   1.78895   1.79451
 Alpha virt. eigenvalues --    1.81830   1.82258   1.82951   1.83650   1.84324
 Alpha virt. eigenvalues --    1.85213   1.86016   1.87512   1.88113   1.88657
 Alpha virt. eigenvalues --    1.89970   1.90776   1.92240   1.92466   1.93566
 Alpha virt. eigenvalues --    1.94791   1.95637   1.97016   1.97208   1.98660
 Alpha virt. eigenvalues --    1.99265   2.00719   2.01107   2.02888   2.03742
 Alpha virt. eigenvalues --    2.04629   2.06282   2.10634   2.11842   2.15851
 Alpha virt. eigenvalues --    2.16530   2.17437   2.20599   2.20737   2.22539
 Alpha virt. eigenvalues --    2.24701   2.25846   2.27679   2.28005   2.29569
 Alpha virt. eigenvalues --    2.31868   2.31977   2.32600   2.34770   2.34985
 Alpha virt. eigenvalues --    2.37236   2.37793   2.38933   2.39014   2.40385
 Alpha virt. eigenvalues --    2.41426   2.41498   2.42047   2.47345   2.51790
 Alpha virt. eigenvalues --    2.53696   2.54397   2.55739   2.56579   2.57279
 Alpha virt. eigenvalues --    2.58553   2.59482   2.61040   2.62541   2.66519
 Alpha virt. eigenvalues --    2.68758   2.69642   2.72015   2.72488   2.73683
 Alpha virt. eigenvalues --    2.74532   2.75805   2.75826   2.78042   2.78335
 Alpha virt. eigenvalues --    2.81413   2.82800   2.86482   2.86615   2.89154
 Alpha virt. eigenvalues --    2.89994   2.92299   2.94131   2.95272   3.00103
 Alpha virt. eigenvalues --    3.03860   3.06119   3.08741   3.08892   3.14391
 Alpha virt. eigenvalues --    3.14967   3.16609   3.18021   3.18624   3.21151
 Alpha virt. eigenvalues --    3.22228   3.24350   3.24570   3.25738   3.26232
 Alpha virt. eigenvalues --    3.26985   3.26987   3.29812   3.29867   3.31028
 Alpha virt. eigenvalues --    3.31908   3.33689   3.34038   3.35367   3.36135
 Alpha virt. eigenvalues --    3.38030   3.43224   3.45336   3.45908   3.46007
 Alpha virt. eigenvalues --    3.46848   3.47936   3.49863   3.55660   3.59516
 Alpha virt. eigenvalues --    3.59549   3.62009   3.66082   3.76670   3.77338
 Alpha virt. eigenvalues --    3.82119   3.86816   3.96583   3.96919   4.06296
 Alpha virt. eigenvalues --    4.17602   4.31921   4.54984   4.72500   4.72591
 Alpha virt. eigenvalues --    4.73496   4.77049   4.79206  23.15321  23.29743
 Alpha virt. eigenvalues --   23.45572  23.58446  23.66277  23.77882  23.79273
 Alpha virt. eigenvalues --   23.83374  23.87225  23.89233  23.89500  23.97507
 Alpha virt. eigenvalues --   23.97883  23.98388  23.98433  24.05470  24.05798
 Alpha virt. eigenvalues --   24.13319  24.13520  24.13744  24.14227  24.14718
          Condensed to atoms (all electrons):
               1          2          3          4          5          6
     1  C    4.996466   0.576340   0.466209  -0.032629  -0.047342  -0.046937
     2  C    0.576340   4.996449  -0.032631   0.466205  -0.046934  -0.047341
     3  C    0.466209  -0.032631   4.826314  -0.043796   0.512911  -0.042341
     4  C   -0.032629   0.466205  -0.043796   4.826344  -0.042338   0.512912
     5  C   -0.047342  -0.046934   0.512911  -0.042338   4.992224   0.423015
     6  C   -0.046937  -0.047341  -0.042341   0.512912   0.423015   4.992222
     7  C   -0.066491   0.006256   0.454307   0.000122  -0.045019   0.012854
     8  C    0.006375  -0.000367  -0.036250   0.000079  -0.039863  -0.000861
     9  C    0.000145   0.000071  -0.039869  -0.000181  -0.036537   0.010736
    10  C    0.013724  -0.000904  -0.050031   0.010032   0.429948  -0.077251
    11  H    0.393119  -0.040953  -0.050101   0.005991   0.005875   0.000521
    12  H   -0.040954   0.393119   0.005991  -0.050101   0.000521   0.005876
    13  H   -0.003991   0.000618  -0.049986   0.000004   0.005552  -0.000486
    14  H   -0.000482   0.000010   0.006037  -0.000001   0.000380   0.000058
    15  C   -0.000016   0.000001   0.000447  -0.000001   0.010776  -0.000194
    16  C   -0.000161  -0.000020   0.007714  -0.000233  -0.066453  -0.023716
    17  C   -0.000003  -0.000000  -0.000231   0.000006   0.006651   0.000576
    18  C    0.000001  -0.000000   0.000026  -0.000000   0.000071   0.000018
    19  H   -0.000001  -0.000000   0.000037  -0.000000  -0.000455   0.000011
    20  H    0.000000   0.000020  -0.000225  -0.000041  -0.008220  -0.000989
    21  H   -0.000000  -0.000000   0.000008  -0.000001  -0.000452  -0.000025
    22  H    0.000000  -0.000000   0.000001   0.000000   0.000038  -0.000001
    23  C   -0.000367   0.006375   0.000078  -0.036255  -0.000861  -0.039860
    24  C    0.006255  -0.066488   0.000123   0.454319   0.012853  -0.045023
    25  C    0.000071   0.000145  -0.000181  -0.039871   0.010737  -0.036534
    26  C   -0.000904   0.013721   0.010031  -0.050048  -0.077254   0.429952
    27  C    0.000001  -0.000016  -0.000001   0.000447  -0.000194   0.010779
    28  C   -0.000000   0.000001  -0.000000   0.000026   0.000018   0.000072
    29  C   -0.000000  -0.000003   0.000006  -0.000231   0.000577   0.006652
    30  C   -0.000020  -0.000161  -0.000233   0.007715  -0.023724  -0.066461
    31  H    0.000010  -0.000482  -0.000001   0.006037   0.000058   0.000380
    32  H    0.000618  -0.003991   0.000004  -0.049985  -0.000486   0.005552
    33  H   -0.000000  -0.000001  -0.000000   0.000037   0.000011  -0.000455
    34  H   -0.000000   0.000000   0.000000   0.000001  -0.000001   0.000038
    35  H    0.000020   0.000000  -0.000041  -0.000225  -0.000991  -0.008220
    36  H   -0.000000  -0.000000  -0.000001   0.000008  -0.000025  -0.000452
               7          8          9         10         11         12
     1  C   -0.066491   0.006375   0.000145   0.013724   0.393119  -0.040954
     2  C    0.006256  -0.000367   0.000071  -0.000904  -0.040953   0.393119
     3  C    0.454307  -0.036250  -0.039869  -0.050031  -0.050101   0.005991
     4  C    0.000122   0.000079  -0.000181   0.010032   0.005991  -0.050101
     5  C   -0.045019  -0.039863  -0.036537   0.429948   0.005875   0.000521
     6  C    0.012854  -0.000861   0.010736  -0.077251   0.000521   0.005876
     7  C    5.002228   0.586487  -0.033689  -0.046239  -0.003677  -0.000489
     8  C    0.586487   4.988307   0.461806  -0.052914   0.000582   0.000009
     9  C   -0.033689   0.461806   4.787711   0.506655   0.000004  -0.000000
    10  C   -0.046239  -0.052914   0.506655   4.990409  -0.000467   0.000052
    11  H   -0.003677   0.000582   0.000004  -0.000467   0.499462  -0.006993
    12  H   -0.000489   0.000009  -0.000000   0.000052  -0.006993   0.499465
    13  H    0.392182  -0.039965   0.005803   0.000639   0.004423  -0.000035
    14  H   -0.040828   0.392340  -0.049455   0.006319  -0.000040  -0.000001
    15  C    0.005110  -0.066027   0.493617  -0.045924  -0.000002   0.000000
    16  C   -0.000429   0.010423  -0.063263   0.489221   0.000014  -0.000001
    17  C    0.000080  -0.000019  -0.036525  -0.033533  -0.000000   0.000000
    18  C   -0.000277   0.006048  -0.035228  -0.035811   0.000000  -0.000000
    19  H    0.000549  -0.004620  -0.049240   0.006364   0.000000  -0.000000
    20  H    0.000014  -0.000320   0.005469  -0.043172  -0.000000  -0.000000
    21  H   -0.000000   0.000039   0.000329   0.005684   0.000000  -0.000000
    22  H    0.000006  -0.000447   0.006243   0.000102  -0.000000   0.000000
    23  C    0.000001  -0.000000   0.000001   0.000016   0.000009   0.000582
    24  C   -0.000017   0.000001  -0.000002  -0.000083  -0.000489  -0.003677
    25  C   -0.000002   0.000001  -0.000001   0.000537  -0.000000   0.000004
    26  C   -0.000082   0.000016   0.000537  -0.013279   0.000052  -0.000467
    27  C   -0.000000  -0.000000  -0.000000  -0.000015   0.000000  -0.000002
    28  C   -0.000000   0.000000  -0.000000  -0.000000  -0.000000   0.000000
    29  C   -0.000001  -0.000001  -0.000032   0.000055   0.000000  -0.000000
    30  C    0.000008  -0.000025   0.000585  -0.000521  -0.000001   0.000014
    31  H    0.000000  -0.000000   0.000000  -0.000001  -0.000001  -0.000040
    32  H   -0.000001   0.000000  -0.000000   0.000016  -0.000035   0.004423
    33  H    0.000000  -0.000000   0.000000  -0.000001  -0.000000   0.000000
    34  H    0.000000  -0.000000  -0.000000   0.000000   0.000000  -0.000000
    35  H   -0.000058   0.000034   0.000366   0.002543  -0.000000  -0.000000
    36  H    0.000000  -0.000000   0.000003   0.000019  -0.000000   0.000000
              13         14         15         16         17         18
     1  C   -0.003991  -0.000482  -0.000016  -0.000161  -0.000003   0.000001
     2  C    0.000618   0.000010   0.000001  -0.000020  -0.000000  -0.000000
     3  C   -0.049986   0.006037   0.000447   0.007714  -0.000231   0.000026
     4  C    0.000004  -0.000001  -0.000001  -0.000233   0.000006  -0.000000
     5  C    0.005552   0.000380   0.010776  -0.066453   0.006651   0.000071
     6  C   -0.000486   0.000058  -0.000194  -0.023716   0.000576   0.000018
     7  C    0.392182  -0.040828   0.005110  -0.000429   0.000080  -0.000277
     8  C   -0.039965   0.392340  -0.066027   0.010423  -0.000019   0.006048
     9  C    0.005803  -0.049455   0.493617  -0.063263  -0.036525  -0.035228
    10  C    0.000639   0.006319  -0.045924   0.489221  -0.033533  -0.035811
    11  H    0.004423  -0.000040  -0.000002   0.000014  -0.000000   0.000000
    12  H   -0.000035  -0.000001   0.000000  -0.000001   0.000000  -0.000000
    13  H    0.500196  -0.007353  -0.000504   0.000060   0.000000   0.000009
    14  H   -0.007353   0.500647  -0.003332  -0.000473   0.000034   0.000355
    15  C   -0.000504  -0.003332   5.004702  -0.046257  -0.046836   0.557913
    16  C    0.000060  -0.000473  -0.046257   5.072010   0.553005  -0.047916
    17  C    0.000000   0.000034  -0.046836   0.553005   4.937718   0.495406
    18  C    0.000009   0.000355   0.557913  -0.047916   0.495406   4.931832
    19  H   -0.000036   0.004655   0.391841  -0.000111   0.006341  -0.041842
    20  H   -0.000001   0.000018  -0.000136   0.392863  -0.037074   0.005818
    21  H    0.000000  -0.000002   0.006260  -0.041057   0.397562  -0.045439
    22  H   -0.000001  -0.000034  -0.043734   0.006558  -0.045256   0.399008
    23  C    0.000000  -0.000000  -0.000000  -0.000025  -0.000001   0.000000
    24  C   -0.000001   0.000000  -0.000000   0.000008  -0.000001  -0.000000
    25  C   -0.000000   0.000000  -0.000000   0.000585  -0.000032  -0.000000
    26  C    0.000016  -0.000001  -0.000015  -0.000524   0.000055  -0.000000
    27  C    0.000000   0.000000   0.000000  -0.000084   0.000000   0.000000
    28  C    0.000000  -0.000000   0.000000   0.000236  -0.000010  -0.000000
    29  C    0.000000   0.000000   0.000000  -0.000418   0.000116  -0.000010
    30  C   -0.000001   0.000001  -0.000084  -0.029278  -0.000417   0.000236
    31  H   -0.000000   0.000000   0.000000   0.000001   0.000000  -0.000000
    32  H   -0.000000  -0.000000   0.000000  -0.000001   0.000000   0.000000
    33  H   -0.000000   0.000000  -0.000000  -0.000001  -0.000000   0.000000
    34  H    0.000000  -0.000000   0.000000   0.000007   0.000000  -0.000000
    35  H   -0.000001  -0.000001   0.000059  -0.002026  -0.001328   0.000131
    36  H   -0.000000   0.000000  -0.000004   0.000183   0.000122  -0.000001
              19         20         21         22         23         24
     1  C   -0.000001   0.000000  -0.000000   0.000000  -0.000367   0.006255
     2  C   -0.000000   0.000020  -0.000000  -0.000000   0.006375  -0.066488
     3  C    0.000037  -0.000225   0.000008   0.000001   0.000078   0.000123
     4  C   -0.000000  -0.000041  -0.000001   0.000000  -0.036255   0.454319
     5  C   -0.000455  -0.008220  -0.000452   0.000038  -0.000861   0.012853
     6  C    0.000011  -0.000989  -0.000025  -0.000001  -0.039860  -0.045023
     7  C    0.000549   0.000014  -0.000000   0.000006   0.000001  -0.000017
     8  C   -0.004620  -0.000320   0.000039  -0.000447  -0.000000   0.000001
     9  C   -0.049240   0.005469   0.000329   0.006243   0.000001  -0.000002
    10  C    0.006364  -0.043172   0.005684   0.000102   0.000016  -0.000083
    11  H    0.000000  -0.000000   0.000000  -0.000000   0.000009  -0.000489
    12  H   -0.000000  -0.000000  -0.000000   0.000000   0.000582  -0.003677
    13  H   -0.000036  -0.000001   0.000000  -0.000001   0.000000  -0.000001
    14  H    0.004655   0.000018  -0.000002  -0.000034  -0.000000   0.000000
    15  C    0.391841  -0.000136   0.006260  -0.043734  -0.000000  -0.000000
    16  C   -0.000111   0.392863  -0.041057   0.006558  -0.000025   0.000008
    17  C    0.006341  -0.037074   0.397562  -0.045256  -0.000001  -0.000001
    18  C   -0.041842   0.005818  -0.045439   0.399008   0.000000  -0.000000
    19  H    0.502923   0.000088  -0.000402  -0.007047  -0.000000   0.000000
    20  H    0.000088   0.459860  -0.006823  -0.000362   0.000034  -0.000058
    21  H   -0.000402  -0.006823   0.497371  -0.005950  -0.000000   0.000000
    22  H   -0.007047  -0.000362  -0.005950   0.499286  -0.000000   0.000000
    23  C   -0.000000   0.000034  -0.000000  -0.000000   4.988270   0.586495
    24  C    0.000000  -0.000058   0.000000   0.000000   0.586495   5.002210
    25  C    0.000000   0.000365   0.000003  -0.000000   0.461812  -0.033688
    26  C   -0.000001   0.002541   0.000019   0.000000  -0.052924  -0.046225
    27  C   -0.000000   0.000059  -0.000004   0.000000  -0.066021   0.005110
    28  C    0.000000   0.000132  -0.000001  -0.000000   0.006047  -0.000277
    29  C   -0.000000  -0.001329   0.000122   0.000000  -0.000019   0.000080
    30  C   -0.000001  -0.002025   0.000183   0.000007   0.010423  -0.000429
    31  H    0.000000  -0.000001   0.000000  -0.000000   0.392341  -0.040828
    32  H   -0.000000  -0.000001  -0.000000   0.000000  -0.039965   0.392181
    33  H    0.000000   0.000003  -0.000000  -0.000000  -0.004621   0.000549
    34  H   -0.000000   0.000005   0.000000  -0.000000  -0.000447   0.000006
    35  H    0.000003   0.000065  -0.000037   0.000005  -0.000320   0.000014
    36  H   -0.000000  -0.000037   0.000001   0.000000   0.000039  -0.000000
              25         26         27         28         29         30
     1  C    0.000071  -0.000904   0.000001  -0.000000  -0.000000  -0.000020
     2  C    0.000145   0.013721  -0.000016   0.000001  -0.000003  -0.000161
     3  C   -0.000181   0.010031  -0.000001  -0.000000   0.000006  -0.000233
     4  C   -0.039871  -0.050048   0.000447   0.000026  -0.000231   0.007715
     5  C    0.010737  -0.077254  -0.000194   0.000018   0.000577  -0.023724
     6  C   -0.036534   0.429952   0.010779   0.000072   0.006652  -0.066461
     7  C   -0.000002  -0.000082  -0.000000  -0.000000  -0.000001   0.000008
     8  C    0.000001   0.000016  -0.000000   0.000000  -0.000001  -0.000025
     9  C   -0.000001   0.000537  -0.000000  -0.000000  -0.000032   0.000585
    10  C    0.000537  -0.013279  -0.000015  -0.000000   0.000055  -0.000521
    11  H   -0.000000   0.000052   0.000000  -0.000000   0.000000  -0.000001
    12  H    0.000004  -0.000467  -0.000002   0.000000  -0.000000   0.000014
    13  H   -0.000000   0.000016   0.000000   0.000000   0.000000  -0.000001
    14  H    0.000000  -0.000001   0.000000  -0.000000   0.000000   0.000001
    15  C   -0.000000  -0.000015   0.000000   0.000000   0.000000  -0.000084
    16  C    0.000585  -0.000524  -0.000084   0.000236  -0.000418  -0.029278
    17  C   -0.000032   0.000055   0.000000  -0.000010   0.000116  -0.000417
    18  C   -0.000000  -0.000000   0.000000  -0.000000  -0.000010   0.000236
    19  H    0.000000  -0.000001  -0.000000   0.000000  -0.000000  -0.000001
    20  H    0.000365   0.002541   0.000059   0.000132  -0.001329  -0.002025
    21  H    0.000003   0.000019  -0.000004  -0.000001   0.000122   0.000183
    22  H   -0.000000   0.000000   0.000000  -0.000000   0.000000   0.000007
    23  C    0.461812  -0.052924  -0.066021   0.006047  -0.000019   0.010423
    24  C   -0.033688  -0.046225   0.005110  -0.000277   0.000080  -0.000429
    25  C    4.787769   0.506666   0.493614  -0.035233  -0.036525  -0.063260
    26  C    0.506666   4.990279  -0.045920  -0.035803  -0.033533   0.489234
    27  C    0.493614  -0.045920   5.004690   0.557913  -0.046828  -0.046262
    28  C   -0.035233  -0.035803   0.557913   4.931817   0.495415  -0.047922
    29  C   -0.036525  -0.033533  -0.046828   0.495415   4.937721   0.552986
    30  C   -0.063260   0.489234  -0.046262  -0.047922   0.552986   5.072076
    31  H   -0.049456   0.006318  -0.003331   0.000355   0.000034  -0.000473
    32  H    0.005803   0.000640  -0.000504   0.000009   0.000000   0.000060
    33  H   -0.049240   0.006364   0.391842  -0.041842   0.006341  -0.000112
    34  H    0.006244   0.000102  -0.043736   0.399009  -0.045258   0.006558
    35  H    0.005468  -0.043173  -0.000136   0.005817  -0.037072   0.392864
    36  H    0.000329   0.005683   0.006260  -0.045435   0.397559  -0.041054
              31         32         33         34         35         36
     1  C    0.000010   0.000618  -0.000000  -0.000000   0.000020  -0.000000
     2  C   -0.000482  -0.003991  -0.000001   0.000000   0.000000  -0.000000
     3  C   -0.000001   0.000004  -0.000000   0.000000  -0.000041  -0.000001
     4  C    0.006037  -0.049985   0.000037   0.000001  -0.000225   0.000008
     5  C    0.000058  -0.000486   0.000011  -0.000001  -0.000991  -0.000025
     6  C    0.000380   0.005552  -0.000455   0.000038  -0.008220  -0.000452
     7  C    0.000000  -0.000001   0.000000   0.000000  -0.000058   0.000000
     8  C   -0.000000   0.000000  -0.000000  -0.000000   0.000034  -0.000000
     9  C    0.000000  -0.000000   0.000000  -0.000000   0.000366   0.000003
    10  C   -0.000001   0.000016  -0.000001   0.000000   0.002543   0.000019
    11  H   -0.000001  -0.000035  -0.000000   0.000000  -0.000000  -0.000000
    12  H   -0.000040   0.004423   0.000000  -0.000000  -0.000000   0.000000
    13  H   -0.000000  -0.000000  -0.000000   0.000000  -0.000001  -0.000000
    14  H    0.000000  -0.000000   0.000000  -0.000000  -0.000001   0.000000
    15  C    0.000000   0.000000  -0.000000   0.000000   0.000059  -0.000004
    16  C    0.000001  -0.000001  -0.000001   0.000007  -0.002026   0.000183
    17  C    0.000000   0.000000  -0.000000   0.000000  -0.001328   0.000122
    18  C   -0.000000   0.000000   0.000000  -0.000000   0.000131  -0.000001
    19  H    0.000000  -0.000000   0.000000  -0.000000   0.000003  -0.000000
    20  H   -0.000001  -0.000001   0.000003   0.000005   0.000065  -0.000037
    21  H    0.000000  -0.000000  -0.000000   0.000000  -0.000037   0.000001
    22  H   -0.000000   0.000000  -0.000000  -0.000000   0.000005   0.000000
    23  C    0.392341  -0.039965  -0.004621  -0.000447  -0.000320   0.000039
    24  C   -0.040828   0.392181   0.000549   0.000006   0.000014  -0.000000
    25  C   -0.049456   0.005803  -0.049240   0.006244   0.005468   0.000329
    26  C    0.006318   0.000640   0.006364   0.000102  -0.043173   0.005683
    27  C   -0.003331  -0.000504   0.391842  -0.043736  -0.000136   0.006260
    28  C    0.000355   0.000009  -0.041842   0.399009   0.005817  -0.045435
    29  C    0.000034   0.000000   0.006341  -0.045258  -0.037072   0.397559
    30  C   -0.000473   0.000060  -0.000112   0.006558   0.392864  -0.041054
    31  H    0.500648  -0.007353   0.004654  -0.000034   0.000018  -0.000002
    32  H   -0.007353   0.500198  -0.000036  -0.000001  -0.000001   0.000000
    33  H    0.004654  -0.000036   0.502923  -0.007047   0.000088  -0.000402
    34  H   -0.000034  -0.000001  -0.007047   0.499290  -0.000362  -0.005950
    35  H    0.000018  -0.000001   0.000088  -0.000362   0.459845  -0.006822
    36  H   -0.000002   0.000000  -0.000402  -0.005950  -0.006822   0.497367
 Mulliken charges:
               1
     1  C   -0.219056
     2  C   -0.219038
     3  C    0.055677
     4  C    0.055651
     5  C    0.024934
     6  C    0.024927
     7  C   -0.222906
     8  C   -0.210867
     9  C    0.063940
    10  C   -0.062189
    11  H    0.192707
    12  H    0.192705
    13  H    0.192860
    14  H    0.191151
    15  C   -0.217663
    16  C   -0.210438
    17  C   -0.196408
    18  C   -0.190348
    19  H    0.190945
    20  H    0.233462
    21  H    0.192612
    22  H    0.191577
    23  C   -0.210838
    24  C   -0.222918
    25  C    0.063869
    26  C   -0.062072
    27  C   -0.217663
    28  C   -0.190343
    29  C   -0.196405
    30  C   -0.210483
    31  H    0.191150
    32  H    0.192858
    33  H    0.190945
    34  H    0.191575
    35  H    0.233474
    36  H    0.192612
 Sum of Mulliken charges =  -0.00000
 Mulliken charges with hydrogens summed into heavy atoms:
               1
     1  C   -0.026349
     2  C   -0.026333
     3  C    0.055677
     4  C    0.055651
     5  C    0.024934
     6  C    0.024927
     7  C   -0.030045
     8  C   -0.019717
     9  C    0.063940
    10  C   -0.062189
    15  C   -0.026718
    16  C    0.023025
    17  C   -0.003796
    18  C    0.001229
    23  C   -0.019687
    24  C   -0.030060
    25  C    0.063869
    26  C   -0.062072
    27  C   -0.026717
    28  C    0.001233
    29  C   -0.003793
    30  C    0.022991
 Electronic spatial extent (au):  <R**2>=           5990.4539
 Charge=             -0.0000 electrons
 Dipole moment (field-independent basis, Debye):
    X=             -0.0228    Y=             -0.0065    Z=              0.0407  Tot=              0.0471
 Quadrupole moment (field-independent basis, Debye-Ang):
   XX=           -111.2041   YY=           -133.0171   ZZ=           -111.9352
   XY=              2.0456   XZ=              0.7810   YZ=             -2.2155
 Traceless Quadrupole moment (field-independent basis, Debye-Ang):
   XX=              7.5147   YY=            -14.2983   ZZ=              6.7836
   XY=              2.0456   XZ=              0.7810   YZ=             -2.2155
 Octapole moment (field-independent basis, Debye-Ang**2):
  XXX=             76.0455  YYY=           -123.0899  ZZZ=           -119.4433  XYY=             33.3509
  XXY=            -51.5627  XXZ=            -44.5868  XZZ=             21.7914  YZZ=            -28.8624
  YYZ=            -67.5518  XYZ=             12.2969
 Hexadecapole moment (field-independent basis, Debye-Ang**3):
 XXXX=          -3964.5282 YYYY=           -764.2780 ZZZZ=          -3052.6473 XXXY=            316.9176
 XXXZ=           -263.9754 YYYX=            339.7463 YYYZ=            287.7744 ZZZX=           -274.2377
 ZZZY=            236.2982 XXYY=           -927.9555 XXZZ=          -1161.1209 YYZZ=           -685.7155
 XXYZ=             90.8765 YYXZ=           -115.9944 ZZXY=             91.3799
 N-N= 1.598608253372D+03 E-N=-5.162334236635D+03  KE= 8.432421439739D+02
 There are a total of      817100 grid points.
 ElSum from          density=      145.9999732816
 ElSum from atomic densities=      145.9999448048
 Hirshfeld populations at iteration   1 (CA, CB, DipXYZ):
               1          2          3          4          5
     1  C    3.021556   3.021556  -0.063000  -0.016565  -0.001966
     2  C    3.021556   3.021556   0.033084   0.007956   0.055583
     3  C    3.002205   3.002205  -0.006952  -0.000878  -0.000410
     4  C    3.002205   3.002205   0.003948   0.000027   0.005796
     5  C    2.998127   2.998127   0.020578   0.001924  -0.020238
     6  C    2.998125   2.998125   0.006155   0.005781  -0.027660
     7  C    3.022130   3.022130  -0.020020  -0.015931   0.061636
     8  C    3.021589   3.021589  -0.031236   0.004125  -0.061693
     9  C    3.002269   3.002269   0.000316  -0.003941   0.007608
    10  C    2.999814   2.999814   0.005788  -0.021795   0.014835
    11  H    0.477524   0.477524  -0.123135  -0.028431   0.076275
    12  H    0.477523   0.477523  -0.001646  -0.007529   0.147408
    13  H    0.477834   0.477834  -0.120451  -0.043426   0.073177
    14  H    0.477539   0.477539  -0.131181  -0.014527  -0.065861
    15  C    3.022033   3.022033  -0.051855  -0.015913  -0.004584
    16  C    3.019169   3.019169   0.030131  -0.009360   0.031123
    17  C    3.021787   3.021787   0.032460   0.033736  -0.039785
    18  C    3.022365   3.022365   0.011053   0.030761  -0.057663
    19  H    0.478683   0.478683  -0.128546  -0.014210  -0.069257
    20  H    0.480353   0.480353   0.114305   0.047376   0.050428
    21  H    0.477477   0.477477   0.107825   0.082817  -0.063513
    22  H    0.477545   0.477545  -0.020094   0.057143  -0.137051
    23  C    3.021589   3.021589   0.068730   0.006678  -0.005514
    24  C    3.022130   3.022130  -0.042866  -0.002182   0.051095
    25  C    3.002270   3.002270  -0.007054   0.001993   0.004466
    26  C    2.999811   2.999811  -0.018397   0.018142   0.007777
    27  C    3.022035   3.022035   0.029413   0.009422   0.044829
    28  C    3.022365   3.022365   0.046330  -0.014212  -0.045216
    29  C    3.021783   3.021783   0.020361  -0.018478  -0.054957
    30  C    3.019166   3.019166  -0.043327   0.005562  -0.007468
    31  H    0.477538   0.477538   0.123126   0.012197   0.080301
    32  H    0.477834   0.477834  -0.002506   0.007980   0.147238
    33  H    0.478683   0.478683   0.124598   0.013075   0.076337
    34  H    0.477546   0.477546   0.132768  -0.024647  -0.064939
    35  H    0.480354   0.480354  -0.096820  -0.042347  -0.081757
    36  H    0.477475   0.477475   0.006466  -0.049837  -0.141397
       Tot  72.999987  72.999987   0.008348   0.002481  -0.015018

 Dip from Atomic Chgs             -0.017269  -0.004990   0.031000
         Total Dipole             -0.008921  -0.002509   0.015983

 Hirshfeld charges, spin densities, dipoles, and CM5 charges using IRadAn=      5:
              Q-H        S-H        Dx         Dy         Dz        Q-CM5   
     1  C   -0.043111   0.000000  -0.063000  -0.016565  -0.001966  -0.095844
     2  C   -0.043112   0.000000   0.033084   0.007956   0.055583  -0.095845
     3  C   -0.004410   0.000000  -0.006952  -0.000878  -0.000410  -0.011449
     4  C   -0.004411   0.000000   0.003948   0.000027   0.005796  -0.011450
     5  C    0.003746   0.000000   0.020578   0.001924  -0.020238   0.001889
     6  C    0.003750   0.000000   0.006155   0.005781  -0.027660   0.001894
     7  C   -0.044260   0.000000  -0.020020  -0.015931   0.061636  -0.096995
     8  C   -0.043178   0.000000  -0.031236   0.004125  -0.061693  -0.095940
     9  C   -0.004538   0.000000   0.000316  -0.003941   0.007608  -0.011837
    10  C    0.000373   0.000000   0.005788  -0.021795   0.014835  -0.004678
    11  H    0.044953   0.000000  -0.123135  -0.028431   0.076275   0.101359
    12  H    0.044953   0.000000  -0.001646  -0.007529   0.147408   0.101360
    13  H    0.044331   0.000000  -0.120451  -0.043426   0.073177   0.100771
    14  H    0.044922   0.000000  -0.131181  -0.014527  -0.065861   0.101229
    15  C   -0.044066   0.000000  -0.051855  -0.015913  -0.004584  -0.096818
    16  C   -0.038338   0.000000   0.030131  -0.009360   0.031123  -0.092055
    17  C   -0.043574   0.000000   0.032460   0.033736  -0.039785  -0.099030
    18  C   -0.044729   0.000000   0.011053   0.030761  -0.057663  -0.099965
    19  H    0.042635   0.000000  -0.128546  -0.014210  -0.069257   0.098968
    20  H    0.039294   0.000000   0.114305   0.047376   0.050428   0.099603
    21  H    0.045045   0.000000   0.107825   0.082817  -0.063513   0.100526
    22  H    0.044910   0.000000  -0.020094   0.057143  -0.137051   0.100269
    23  C   -0.043177   0.000000   0.068730   0.006678  -0.005514  -0.095939
    24  C   -0.044260   0.000000  -0.042866  -0.002182   0.051095  -0.096995
    25  C   -0.004540   0.000000  -0.007054   0.001993   0.004466  -0.011839
    26  C    0.000378   0.000000  -0.018397   0.018142   0.007777  -0.004672
    27  C   -0.044070   0.000000   0.029413   0.009422   0.044829  -0.096822
    28  C   -0.044730   0.000000   0.046330  -0.014212  -0.045216  -0.099966
    29  C   -0.043566   0.000000   0.020361  -0.018478  -0.054957  -0.099022
    30  C   -0.038333   0.000000  -0.043327   0.005562  -0.007468  -0.092050
    31  H    0.044923   0.000000   0.123126   0.012197   0.080301   0.101230
    32  H    0.044331   0.000000  -0.002506   0.007980   0.147238   0.100772
    33  H    0.042635   0.000000   0.124598   0.013075   0.076337   0.098968
    34  H    0.044909   0.000000   0.132768  -0.024647  -0.064939   0.100267
    35  H    0.039292   0.000000  -0.096820  -0.042347  -0.081757   0.099603
    36  H    0.045051   0.000000   0.006466  -0.049837  -0.141397   0.100531
       Tot   0.000027   0.000000   0.008348   0.002481  -0.015018   0.000027
 Hirshfeld charges with hydrogens summed into heavy atoms:
              Q-H       Q-CM5   
     1  C    0.001841   0.005515
     2  C    0.001841   0.005515
     3  C   -0.004410  -0.011449
     4  C   -0.004411  -0.011450
     5  C    0.003746   0.001889
     6  C    0.003750   0.001894
     7  C    0.000071   0.003776
     8  C    0.001744   0.005288
     9  C   -0.004538  -0.011837
    10  C    0.000373  -0.004678
    15  C   -0.001431   0.002150
    16  C    0.000956   0.007548
    17  C    0.001472   0.001496
    18  C    0.000181   0.000304
    23  C    0.001746   0.005291
    24  C    0.000071   0.003776
    25  C   -0.004540  -0.011839
    26  C    0.000378  -0.004672
    27  C   -0.001435   0.002146
    28  C    0.000178   0.000301
    29  C    0.001485   0.001509
    30  C    0.000960   0.007552
 
 EQQ=  0.00000000000     EQD=  0.00000000000     EDD= 0.146433982775E-01
 EQQ+QD+DD= 0.146433982775E-01
 
 1\1\GINC-CU23\SP\RB3LYP\6-311G(d)\C22H14\WANG\06-Jul-2025\0\\# B3LYP/6
 -311G* Pop=Hirshfeld NOSYMM\\From ../../5helicene_opt.out\\0,1\C,0,-2.
 371672,-0.207152,2.856024\C,0,-1.198825,-0.047528,3.535966\C,0,-2.4177
 99,-0.019587,1.445542\C,0,0.027968,0.105142,2.829985\C,0,-1.232147,0.2
 97893,0.724716\C,0,0.038323,0.132372,1.406852\C,0,-3.673671,-0.115091,
 0.765443\C,0,-3.787038,0.185889,-0.556981\C,0,-2.67577,0.741371,-1.264
 115\C,0,-1.40583,0.855453,-0.614124\H,0,-3.298599,-0.416743,3.383953\H
 ,0,-1.172033,-0.097359,4.621614\H,0,-4.54042,-0.439163,1.336413\H,0,-4
 .739491,0.087979,-1.071992\C,0,-2.849381,1.262696,-2.570133\C,0,-0.415
 029,1.634422,-1.267226\C,0,-0.622052,2.169606,-2.523415\C,0,-1.838874,
 1.955866,-3.201429\H,0,-3.815748,1.135799,-3.052693\H,0,0.520856,1.832
 359,-0.760755\H,0,0.157933,2.769116,-2.984989\H,0,-1.989746,2.363842,-
 4.197145\C,0,2.458411,0.205335,2.930231\C,0,1.253935,0.191908,3.56371\
 C,0,2.529017,-0.009416,1.518704\C,0,1.323139,-0.10499,0.753858\C,0,3.7
 81547,-0.219673,0.890562\C,0,3.861173,-0.598466,-0.43244\C,0,2.673673,
 -0.803778,-1.163017\C,0,1.443005,-0.563761,-0.58411\H,0,3.384118,0.295
 474,3.493194\H,0,1.197291,0.249789,4.648017\H,0,4.683746,-0.111267,1.4
 88154\H,0,4.82742,-0.771291,-0.898441\H,0,0.546674,-0.75035,-1.161461\
 H,0,2.722339,-1.164304,-2.186976\\Version=ES64L-G16RevB.01\HF=-846.971
 9896\RMSD=6.405e-09\Dipole=-0.0089579,-0.0025388,0.0160057\Quadrupole=
 5.5869763,-10.6304361,5.0434598,1.5208532,0.5806807,-1.6471654\PG=C01 
 [X(C22H14)]\\@


 NATURE GIVES TO EVERY TIME AND SEASON SOME BEAUTY OF ITS OWN.

                                                    --DICKENS
 Job cpu time:       0 days  0 hours  7 minutes 12.7 seconds.
 Elapsed time:       0 days  0 hours  0 minutes 24.3 seconds.
 File lengths (MBytes):  RWF=    106 Int=      0 D2E=      0 Chk=     12 Scr=      1
 Normal termination of Gaussian 16 at Sun Jul  6 01:53:15 2025.
