 Entering Gaussian System, Link 0=g16
 Initial command:
 /opt/software/g16/l1.exe "/tmp/6helicene_sgp-18837.tmp/Gau-70678.inp" -scrdir="/tmp/6helicene_sgp-18837.tmp/"
 Entering Link 1 = /opt/software/g16/l1.exe PID=     70679.
  
 Copyright (c) 1988-2017, Gaussian, Inc.  All Rights Reserved.
  
 This is part of the Gaussian(R) 16 program.  It is based on
 the Gaussian(R) 09 system (copyright 2009, Gaussian, Inc.),
 the Gaussian(R) 03 system (copyright 2003, Gaussian, Inc.),
 the Gaussian(R) 98 system (copyright 1998, Gaussian, Inc.),
 the Gaussian(R) 94 system (copyright 1995, Gaussian, Inc.),
 the Gaussian 92(TM) system (copyright 1992, Gaussian, Inc.),
 the Gaussian 90(TM) system (copyright 1990, Gaussian, Inc.),
 the Gaussian 88(TM) system (copyright 1988, Gaussian, Inc.),
 the Gaussian 86(TM) system (copyright 1986, Carnegie Mellon
 University), and the Gaussian 82(TM) system (copyright 1983,
 Carnegie Mellon University). Gaussian is a federally registered
 trademark of Gaussian, Inc.
  
 This software contains proprietary and confidential information,
 including trade secrets, belonging to Gaussian, Inc.
  
 This software is provided under written license and may be
 used, copied, transmitted, or stored only in accord with that
 written license.
  
 The following legend is applicable only to US Government
 contracts under FAR:
  
                    RESTRICTED RIGHTS LEGEND
  
 Use, reproduction and disclosure by the US Government is
 subject to restrictions as set forth in subparagraphs (a)
 and (c) of the Commercial Computer Software - Restricted
 Rights clause in FAR 52.227-19.
  
 Gaussian, Inc.
 340 Quinnipiac St., Bldg. 40, Wallingford CT 06492
  
  
 ---------------------------------------------------------------
 Warning -- This program may not be used in any manner that
 competes with the business of Gaussian, Inc. or will provide
 assistance to any competitor of Gaussian, Inc.  The licensee
 of this program is prohibited from giving any competitor of
 Gaussian, Inc. access to this program.  By using this program,
 the user acknowledges that Gaussian, Inc. is engaged in the
 business of creating and licensing software in the field of
 computational chemistry and represents and warrants to the
 licensee that it is not a competitor of Gaussian, Inc. and that
 it will not use this program in any manner prohibited above.
 ---------------------------------------------------------------
  

 Cite this work as:
 Gaussian 16, Revision B.01,
 M. J. Frisch, G. W. Trucks, H. B. Schlegel, G. E. Scuseria, 
 M. A. Robb, J. R. Cheeseman, G. Scalmani, V. Barone, 
 G. A. Petersson, H. Nakatsuji, X. Li, M. Caricato, A. V. Marenich, 
 J. Bloino, B. G. Janesko, R. Gomperts, B. Mennucci, H. P. Hratchian, 
 J. V. Ortiz, A. F. Izmaylov, J. L. Sonnenberg, D. Williams-Young, 
 F. Ding, F. Lipparini, F. Egidi, J. Goings, B. Peng, A. Petrone, 
 T. Henderson, D. Ranasinghe, V. G. Zakrzewski, J. Gao, N. Rega, 
 G. Zheng, W. Liang, M. Hada, M. Ehara, K. Toyota, R. Fukuda, 
 J. Hasegawa, M. Ishida, T. Nakajima, Y. Honda, O. Kitao, H. Nakai, 
 T. Vreven, K. Throssell, J. A. Montgomery, Jr., J. E. Peralta, 
 F. Ogliaro, M. J. Bearpark, J. J. Heyd, E. N. Brothers, K. N. Kudin, 
 V. N. Staroverov, T. A. Keith, R. Kobayashi, J. Normand, 
 K. Raghavachari, A. P. Rendell, J. C. Burant, S. S. Iyengar, 
 J. Tomasi, M. Cossi, J. M. Millam, M. Klene, C. Adamo, R. Cammi, 
 J. W. Ochterski, R. L. Martin, K. Morokuma, O. Farkas, 
 J. B. Foresman, and D. J. Fox, Gaussian, Inc., Wallingford CT, 2016.
 
 ******************************************
 Gaussian 16:  ES64L-G16RevB.01 20-Dec-2017
                10-Jun-2025 
 ******************************************
 %nproc=18
 Will use up to   18 processors via shared memory.
 ------------------------------------
 # B3LYP/6-311G* Pop=Hirshfeld NOSYMM
 ------------------------------------
 1/38=1,172=1/1;
 2/12=2,15=1,17=6,18=5,40=1/2;
 3/5=4,6=6,7=1,11=2,25=1,30=1,74=-5/1,2,3;
 4//1;
 5/5=2,38=5/2;
 6/7=2,8=2,9=2,10=2,28=1,79=1/1;
 99/5=1,9=1/99;
 ----------------------------
 From ../../6helicene_opt.out
 ----------------------------
 Symbolic Z-matrix:
 Charge =  0 Multiplicity = 1
 6                     2.2926    2.89677   0.78085 
 6                     1.16162   3.56399   0.41054 
 6                     0.00022   2.84827  -0.00002 
 6                     0.00011   1.41907  -0.00002 
 6                     1.29794   0.76167   0.0391 
 6                     2.40064   1.49332   0.55998 
 6                     1.58306  -0.55005  -0.53298 
 6                     2.84721  -1.1693   -0.27495 
 6                     3.84804  -0.46095   0.46053 
 6                     3.64914   0.83897   0.81071 
 6                     0.70684  -1.21634  -1.42656 
 6                     1.01873  -2.44906  -1.96603 
 6                     2.22805  -3.09078  -1.6353 
 6                     3.12797  -2.44996  -0.81033 
 6                    -1.16107   3.56418  -0.41056 
 6                    -2.29216   2.89714  -0.78086 
 6                    -2.40043   1.49371  -0.55999 
 6                    -1.29783   0.76188  -0.03913 
 6                    -3.64904   0.83956  -0.81069 
 6                    -3.84814  -0.46033  -0.46049 
 6                    -2.84741  -1.16883   0.27497 
 6                    -1.58315  -0.54979   0.53297 
 6                    -3.12837  -2.44945   0.81036 
 6                    -2.22852  -3.09041   1.6353 
 6                    -1.01908  -2.44889   1.96599 
 6                    -0.70702  -1.21622   1.42651 
 1                     3.1568    3.43224   1.16572 
 1                     1.11159   4.64891   0.4584 
 1                     4.79345  -0.95612   0.66817 
 1                     4.44119   1.41339   1.28502 
 1                    -0.22004  -0.73823  -1.71511 
 1                     0.32516  -2.92174  -2.65612 
 1                     2.46055  -4.06791  -2.04986 
 1                     4.08788  -2.90697  -0.5808 
 1                    -1.11086   4.64909  -0.45843 
 1                    -3.15628   3.43275  -1.16572 
 1                    -4.441     1.41411  -1.28498 
 1                    -4.79364  -0.95535  -0.66811 
 1                    -4.08835  -2.9063    0.58085 
 1                    -2.46117  -4.0675    2.04987 
 1                    -0.32558  -2.92169   2.65606 
 1                     0.21996  -0.73827   1.71503 
 
                          Input orientation:                          
 ---------------------------------------------------------------------
 Center     Atomic      Atomic             Coordinates (Angstroms)
 Number     Number       Type             X           Y           Z
 ---------------------------------------------------------------------
      1          6           0        2.292601    2.896772    0.780853
      2          6           0        1.161623    3.563987    0.410536
      3          6           0        0.000220    2.848267   -0.000016
      4          6           0        0.000106    1.419074   -0.000019
      5          6           0        1.297935    0.761672    0.039104
      6          6           0        2.400640    1.493321    0.559982
      7          6           0        1.583059   -0.550049   -0.532982
      8          6           0        2.847206   -1.169299   -0.274951
      9          6           0        3.848040   -0.460953    0.460526
     10          6           0        3.649144    0.838967    0.810713
     11          6           0        0.706841   -1.216336   -1.426560
     12          6           0        1.018725   -2.449059   -1.966028
     13          6           0        2.228045   -3.090776   -1.635297
     14          6           0        3.127974   -2.449963   -0.810328
     15          6           0       -1.161069    3.564175   -0.410560
     16          6           0       -2.292161    2.897142   -0.780863
     17          6           0       -2.400425    1.493710   -0.559986
     18          6           0       -1.297829    0.761883   -0.039127
     19          6           0       -3.649042    0.839558   -0.810688
     20          6           0       -3.848143   -0.460328   -0.460489
     21          6           0       -2.847407   -1.168834    0.274968
     22          6           0       -1.583154   -0.549789    0.532967
     23          6           0       -3.128369   -2.449451    0.810356
     24          6           0       -2.228519   -3.090410    1.635299
     25          6           0       -1.019084   -2.448891    1.965992
     26          6           0       -0.707015   -1.216219    1.426514
     27          1           0        3.156802    3.432239    1.165720
     28          1           0        1.111592    4.648913    0.458404
     29          1           0        4.793454   -0.956124    0.668169
     30          1           0        4.441186    1.413392    1.285017
     31          1           0       -0.220043   -0.738232   -1.715109
     32          1           0        0.325164   -2.921739   -2.656123
     33          1           0        2.460547   -4.067908   -2.049863
     34          1           0        4.087879   -2.906969   -0.580798
     35          1           0       -1.110865    4.649093   -0.458425
     36          1           0       -3.156281    3.432750   -1.165717
     37          1           0       -4.441000    1.414110   -1.284977
     38          1           0       -4.793642   -0.955346   -0.668109
     39          1           0       -4.088354   -2.906302    0.580853
     40          1           0       -2.461168   -4.067504    2.049872
     41          1           0       -0.325577   -2.921687    2.656063
     42          1           0        0.219960   -0.738268    1.715029
 ---------------------------------------------------------------------
                    Distance matrix (angstroms):
                    1          2          3          4          5
     1  C    0.000000
     2  C    1.364339   0.000000
     3  C    2.422214   1.424663   0.000000
     4  C    2.837056   2.473526   1.429193   0.000000
     5  C    2.469454   2.830108   2.457534   1.455358   0.000000
     6  C    1.424827   2.417676   2.812738   2.466106   1.422175
     7  C    3.756353   4.241831   3.786553   2.582099   1.459174
     8  C    4.237363   5.071004   4.931709   3.857621   2.495500
     9  C    3.714339   4.839367   5.095955   4.307342   2.859273
    10  C    2.464886   3.711285   4.243726   3.782762   2.475791
    11  C    4.930007   5.141326   4.365242   3.078941   2.531813
    12  C    6.143779   6.467240   5.741447   4.457043   3.795696
    13  C    6.456987   7.043334   6.550540   5.289290   4.302334
    14  C    5.640681   6.443961   6.205698   5.040794   3.792780
    15  C    3.713856   2.463554   1.424662   2.473526   3.755386
    16  C    4.843449   3.713858   2.422214   2.837057   4.256920
    17  C    5.078477   4.232747   2.812737   2.466107   3.817415
    18  C    4.256913   3.755381   2.457531   1.455357   2.596943
    19  C    6.486004   5.661837   4.243726   3.782764   5.020039
    20  C    7.107727   6.484717   5.095953   4.307343   5.312720
    21  C    6.573032   6.204055   4.931703   3.857618   4.578902
    22  C    5.192466   4.946912   3.786546   2.582094   3.203827
    23  C    7.613796   7.397657   6.205690   5.040789   5.522527
    24  C    7.550957   7.567966   6.550528   5.289280   5.460975
    25  C    6.399057   6.582524   5.741433   4.457028   4.403316
    26  C    5.131400   5.232054   4.365228   3.078926   3.139552
    27  H    1.087056   2.137381   3.415256   3.921289   3.443338
    28  H    2.137464   1.087133   2.165092   3.446362   3.914228
    29  H    4.594755   5.804134   6.155888   5.391125   3.945276
    30  H    2.659138   4.018123   4.840698   4.623261   3.443409
    31  H    5.075082   4.993642   3.981587   2.764773   2.762469
    32  H    7.038372   7.222791   6.360304   5.099334   4.666696
    33  H    7.519836   8.123213   7.621585   6.353157   5.388905
    34  H    6.225795   7.170704   7.083008   5.980120   4.650483
    35  H    4.023682   2.663973   2.165092   3.446363   4.600206
    36  H    5.810914   4.598488   3.415257   3.921291   5.331631
    37  H    7.197730   6.235874   4.840699   4.623263   5.925727
    38  H    8.194702   7.553345   6.155886   5.391126   6.368329
    39  H    8.627413   8.334021   7.083002   5.980117   6.539085
    40  H    8.527008   8.605329   7.621572   6.353146   6.441660
    41  H    6.650243   7.022686   6.360288   5.099318   4.801187
    42  H    4.287428   4.593237   3.981570   2.764751   2.494108
                    6          7          8          9         10
     6  C    0.000000
     7  C    2.457309   0.000000
     8  C    2.825965   1.431125   0.000000
     9  C    2.433936   2.474901   1.429807   0.000000
    10  C    1.431715   2.829061   2.419691   1.360876   0.000000
    11  C    3.762651   1.417807   2.430962   3.741501   4.229280
    12  C    4.881882   2.445063   2.800155   4.224423   5.043859
    13  C    5.085566   2.843659   2.434333   3.732670   4.842042
    14  C    4.237482   2.464418   1.416178   2.467737   3.703573
    15  C    4.232748   4.946925   6.204066   6.484722   5.661839
    16  C    5.078480   5.192485   6.573050   7.107736   6.486008
    17  C    4.929965   4.477256   5.891561   6.626120   6.237370
    18  C    3.817408   3.203837   4.578907   5.312716   5.020031
    19  C    6.237371   5.420610   6.820833   7.714503   7.476126
    20  C    6.626115   5.432427   6.735337   7.751097   7.714495
    21  C    5.891545   4.545845   5.721104   6.735320   6.820811
    22  C    4.477236   3.340831   4.545835   5.432404   5.420584
    23  C    6.795445   5.254507   6.206785   7.262698   7.533152
    24  C    6.602727   5.067840   5.753495   6.724485   7.118066
    25  C    5.404851   4.076962   4.648374   5.468750   5.825550
    26  C    4.213075   3.086721   3.940770   4.717212   4.855834
    27  H    2.167511   4.606612   4.831722   4.016473   2.663361
    28  H    3.410238   5.313599   6.115698   5.796454   4.591185
    29  H    3.425937   3.451709   2.173200   1.087252   2.133569
    30  H    2.167001   3.915241   3.412413   2.131848   1.087317
    31  H    4.125997   2.164258   3.415829   4.621642   4.882411
    32  H    5.843260   3.422710   3.886093   5.308448   6.100058
    33  H    6.143464   3.930171   3.420782   4.608396   5.802851
    34  H    4.848784   3.439692   2.156921   2.669246   4.020053
    35  H    4.829774   5.856096   7.039437   7.179678   6.227797
    36  H    6.133416   6.222892   7.616704   8.177170   7.546376
    37  H    7.086479   6.380651   7.798211   8.675876   8.376941
    38  H    7.698173   6.390997   7.653947   8.729084   8.757118
    39  H    7.839908   6.241593   7.200804   8.305454   8.599346
    40  H    7.535232   5.949739   6.479447   7.439041   7.933781
    41  H    5.596259   4.408806   4.661358   5.319274   5.774621
    42  H    3.327084   2.635720   3.323888   3.848850   3.881335
                   11         12         13         14         15
    11  C    0.000000
    12  C    1.381269   0.000000
    13  C    2.423047   1.408417   0.000000
    14  C    2.786299   2.405114   1.378799   0.000000
    15  C    5.232077   6.582550   7.567988   7.397673   0.000000
    16  C    5.131436   6.399097   7.550992   7.613821   1.364341
    17  C    4.213123   5.404902   6.602768   6.795471   2.417676
    18  C    3.139590   4.403353   5.461001   5.522539   2.830107
    19  C    4.855895   5.825621   7.118122   7.533186   3.711287
    20  C    4.717279   5.468830   6.724544   7.262730   4.839368
    21  C    3.940829   4.648442   5.753537   6.206798   5.071002
    22  C    3.086763   4.077006   5.067862   5.254506   4.241827
    23  C    4.607950   4.990661   5.923148   6.462851   6.443959
    24  C    4.637184   4.891368   5.527907   5.923114   7.043329
    25  C    4.000927   4.428707   4.891334   4.990596   6.467234
    26  C    3.184183   4.000927   4.637157   4.607898   5.141320
    27  H    5.859307   6.997777   7.159470   6.205312   4.598486
    28  H    6.173982   7.501180   8.095235   7.487958   2.663971
    29  H    4.599566   4.839052   4.055122   2.681666   7.553350
    30  H    5.311634   6.099267   5.806355   4.586993   6.235873
    31  H    1.082108   2.127072   3.396170   3.867540   4.593265
    32  H    2.136797   1.086593   2.166014   3.388993   7.022715
    33  H    3.405210   2.169459   1.086604   2.144680   8.605353
    34  H    3.873625   3.398272   2.145865   1.087638   8.334035
    35  H    6.216478   7.562525   8.511106   8.275759   1.087133
    36  H    6.050269   7.257193   8.471592   8.615363   2.137383
    37  H    5.782695   6.722834   8.055612   8.511505   4.018125
    38  H    5.558658   6.139982   7.402675   8.062636   5.804135
    39  H    5.466222   5.725201   6.696435   7.363357   7.170702
    40  H    5.500093   5.554860   6.043442   6.483494   8.123208
    41  H    4.543338   4.836760   4.996534   4.915832   7.222785
    42  H    3.214838   4.137029   4.559757   4.214721   4.993634
                   16         17         18         19         20
    16  C    0.000000
    17  C    1.424826   0.000000
    18  C    2.469453   1.422175   0.000000
    19  C    2.464887   1.431716   2.475791   0.000000
    20  C    3.714340   2.433937   2.859274   1.360876   0.000000
    21  C    4.237362   2.825966   2.495499   2.419691   1.429808
    22  C    3.756351   2.457309   1.459173   2.829061   2.474901
    23  C    5.640681   4.237483   3.792778   3.703575   2.467738
    24  C    6.456986   5.085566   4.302330   4.842044   3.732672
    25  C    6.143778   4.881882   3.795691   5.043860   4.224425
    26  C    4.930004   3.762650   2.531808   4.229281   3.741502
    27  H    5.810913   6.133411   5.331622   7.546370   8.177156
    28  H    4.023682   4.829771   4.600201   6.227794   7.179671
    29  H    8.194711   7.698178   6.368324   8.757125   8.729082
    30  H    7.197731   7.086475   5.925716   8.376936   8.675863
    31  H    4.287474   3.327152   2.494170   3.881421   3.848949
    32  H    6.650291   5.596322   4.801234   5.774712   5.319384
    33  H    8.527046   7.535276   6.441687   7.933842   7.439107
    34  H    8.627435   7.839930   6.539093   8.599376   8.305478
    35  H    2.137466   3.410238   3.914226   4.591186   5.796454
    36  H    1.087057   2.167511   3.443338   2.663363   4.016476
    37  H    2.659140   2.167001   3.443409   1.087317   2.131848
    38  H    4.594756   3.425938   3.945276   2.133569   1.087252
    39  H    6.225796   4.848786   4.650482   4.020056   2.669248
    40  H    7.519835   6.143464   5.388901   5.802853   4.608398
    41  H    7.038372   5.843261   4.666692   6.100061   5.308451
    42  H    5.075080   4.125995   2.762463   4.882413   4.621644
                   21         22         23         24         25
    21  C    0.000000
    22  C    1.431124   0.000000
    23  C    1.416178   2.464417   0.000000
    24  C    2.434333   2.843657   1.378800   0.000000
    25  C    2.800156   2.445061   2.405115   1.408417   0.000000
    26  C    2.430963   1.417806   2.786300   2.423047   1.381269
    27  H    7.616682   6.222870   8.615331   8.471549   7.257145
    28  H    7.039425   5.856084   8.275742   8.511084   7.562501
    29  H    7.653928   6.390972   8.062600   7.402609   6.139894
    30  H    7.798184   6.380622   8.511464   8.055551   6.722760
    31  H    3.323983   2.635797   4.214808   4.559819   4.137067
    32  H    4.661457   4.408868   4.915936   4.996604   4.836790
    33  H    6.479494   5.949764   6.483536   6.043448   5.554830
    34  H    7.200808   6.241585   7.363346   6.696389   5.725124
    35  H    6.115694   5.313595   7.487954   8.095229   7.501173
    36  H    4.831723   4.606612   6.205315   7.159473   6.997779
    37  H    3.412414   3.915240   4.586995   5.806357   6.099269
    38  H    2.173201   3.451709   2.681668   4.055125   4.839055
    39  H    2.156921   3.439691   1.087638   2.145865   3.398272
    40  H    3.420782   3.930169   2.144680   1.086604   2.169458
    41  H    3.886095   3.422709   3.388995   2.166014   1.086594
    42  H    3.415831   2.164259   3.867543   3.396171   2.127074
                   26         27         28         29         30
    26  C    0.000000
    27  H    6.050228   0.000000
    28  H    6.216457   2.482635   0.000000
    29  H    5.558588   4.709981   6.709437   0.000000
    30  H    5.782633   2.395750   4.715727   2.473702   0.000000
    31  H    3.214873   6.090574   5.959760   5.555416   5.946200
    32  H    4.543360   7.937109   8.223960   5.905944   7.160138
    33  H    5.500071   8.190052   9.170281   4.744824   6.714835
    34  H    5.466164   6.640993   8.187159   2.421477   4.719281
    35  H    6.173976   4.725628   2.404140   8.218799   6.658425
    36  H    5.859307   6.729830   4.725628   9.264105   8.234404
    37  H    5.311634   8.234401   6.658424   9.731800   9.246518
    38  H    4.599567   9.264091   8.218792   9.679775   9.731787
    39  H    3.873626   9.644245   9.172552   9.093807   9.586900
    40  H    3.405210   9.412197   9.553707   8.013696   8.846904
    41  H    2.136798   7.397328   8.013061   5.832636   6.587466
    42  H    1.082109   5.130293   5.603198   4.696831   4.757447
                   31         32         33         34         35
    31  H    0.000000
    32  H    2.439357   0.000000
    33  H    4.287699   2.498222   0.000000
    34  H    4.954621   4.297117   2.480754   0.000000
    35  H    5.603221   8.013086   9.553730   9.172567   0.000000
    36  H    5.130343   7.397385   9.412244   9.644274   2.482635
    37  H    4.757527   6.587560   8.846973   9.586937   4.715729
    38  H    4.696930   5.832759   8.013772   9.093837   6.709437
    39  H    4.993576   5.473335   7.152489   8.258342   8.187157
    40  H    5.502888   5.587738   6.405553   7.152432   9.170275
    41  H    4.887306   5.351895   5.587669   5.473215   8.223954
    42  H    3.458244   4.887288   5.502831   4.993484   5.959753
                   36         37         38         39         40
    36  H    0.000000
    37  H    2.395753   0.000000
    38  H    4.709984   2.473703   0.000000
    39  H    6.640997   4.719284   2.421480   0.000000
    40  H    8.190055   6.714838   4.744827   2.480754   0.000000
    41  H    7.937113   7.160142   5.905948   4.297118   2.498222
    42  H    6.090574   5.946202   5.555418   4.954624   4.287701
                   41         42
    41  H    0.000000
    42  H    2.439359   0.000000
 Symmetry turned off by external request.
 Stoichiometry    C26H16
 Framework group  C1[X(C26H16)]
 Deg. of freedom   120
 Full point group                 C1      NOp   1
 Rotational constants (GHZ):           0.2864442           0.2376404           0.1547362
 Standard basis: 6-311G(d) (5D, 7F)
   516 basis functions,   912 primitive gaussians,   542 cartesian basis functions
    86 alpha electrons       86 beta electrons
       nuclear repulsion energy      2119.2651984609 Hartrees.
 NAtoms=   42 NActive=   42 NUniq=   42 SFac= 1.00D+00 NAtFMM=   60 NAOKFM=F Big=F
 Integral buffers will be    131072 words long.
 Raffenetti 2 integral format.
 Two-electron integral symmetry is turned off.
 One-electron integrals computed using PRISM.
 NBasis=   516 RedAO= T EigKep=  5.82D-05  NBF=   516
 NBsUse=   516 1.00D-06 EigRej= -1.00D+00 NBFU=   516
 ExpMin= 1.03D-01 ExpMax= 4.56D+03 ExpMxC= 6.82D+02 IAcc=3 IRadAn=         5 AccDes= 0.00D+00
 Harris functional with IExCor=  402 and IRadAn=       5 diagonalized for initial guess.
 HarFok:  IExCor=  402 AccDes= 0.00D+00 IRadAn=         5 IDoV= 1 UseB2=F ITyADJ=14
 ICtDFT=  3500011 ScaDFX=  1.000000  1.000000  1.000000  1.000000
 FoFCou: FMM=F IPFlag=           0 FMFlag=      100000 FMFlg1=           0
         NFxFlg=           0 DoJE=T BraDBF=F KetDBF=T FulRan=T
         wScrn=  0.000000 ICntrl=       500 IOpCl=  0 I1Cent=   200000004 NGrid=           0
         NMat0=    1 NMatS0=      1 NMatT0=    0 NMatD0=    1 NMtDS0=    0 NMtDT0=    0
 Symmetry not used in FoFCou.
 Requested convergence on RMS density matrix=1.00D-08 within 128 cycles.
 Requested convergence on MAX density matrix=1.00D-06.
 Requested convergence on             energy=1.00D-06.
 No special actions if energy rises.
 Integral accuracy reduced to 1.0D-05 until final iterations.
 Initial convergence to 1.0D-05 achieved.  Increase integral accuracy.
 SCF Done:  E(RB3LYP) =  -1000.63726868     A.U. after   14 cycles
            NFock= 14  Conv=0.70D-08     -V/T= 2.0044

 **********************************************************************

            Population analysis using the SCF Density.

 **********************************************************************

 Alpha  occ. eigenvalues --  -10.19694 -10.19495 -10.19492 -10.18923 -10.18855
 Alpha  occ. eigenvalues --  -10.18855 -10.18806 -10.18805 -10.18475 -10.18475
 Alpha  occ. eigenvalues --  -10.17879 -10.17877 -10.17805 -10.17805 -10.17764
 Alpha  occ. eigenvalues --  -10.17764 -10.17694 -10.17694 -10.17436 -10.17435
 Alpha  occ. eigenvalues --  -10.17358 -10.17358 -10.17195 -10.17195 -10.17043
 Alpha  occ. eigenvalues --  -10.17042  -0.89641  -0.87759  -0.86058  -0.83942
 Alpha  occ. eigenvalues --   -0.81719  -0.79464  -0.79336  -0.76414  -0.75912
 Alpha  occ. eigenvalues --   -0.73736  -0.73674  -0.71546  -0.71400  -0.64773
 Alpha  occ. eigenvalues --   -0.64249  -0.62197  -0.61645  -0.61644  -0.60172
 Alpha  occ. eigenvalues --   -0.57788  -0.56069  -0.53996  -0.52964  -0.51438
 Alpha  occ. eigenvalues --   -0.51322  -0.49740  -0.48834  -0.48075  -0.46621
 Alpha  occ. eigenvalues --   -0.45454  -0.45231  -0.43763  -0.43464  -0.43248
 Alpha  occ. eigenvalues --   -0.42728  -0.42437  -0.42186  -0.40942  -0.40599
 Alpha  occ. eigenvalues --   -0.40057  -0.39782  -0.38957  -0.37492  -0.37264
 Alpha  occ. eigenvalues --   -0.36829  -0.36013  -0.35376  -0.34797  -0.34257
 Alpha  occ. eigenvalues --   -0.32882  -0.32725  -0.31929  -0.30058  -0.29160
 Alpha  occ. eigenvalues --   -0.28068  -0.26379  -0.23453  -0.23055  -0.21072
 Alpha  occ. eigenvalues --   -0.20853
 Alpha virt. eigenvalues --   -0.06460  -0.05766  -0.03241  -0.02917   0.00501
 Alpha virt. eigenvalues --    0.01397   0.03231   0.03677   0.04669   0.05064
 Alpha virt. eigenvalues --    0.05342   0.06007   0.06801   0.07459   0.07662
 Alpha virt. eigenvalues --    0.08316   0.09221   0.09592   0.10516   0.10715
 Alpha virt. eigenvalues --    0.11589   0.12216   0.13244   0.14100   0.14464
 Alpha virt. eigenvalues --    0.15104   0.16434   0.18195   0.19391   0.19599
 Alpha virt. eigenvalues --    0.21808   0.23717   0.24273   0.24478   0.24930
 Alpha virt. eigenvalues --    0.25270   0.25702   0.27614   0.27818   0.28115
 Alpha virt. eigenvalues --    0.28643   0.28847   0.28899   0.29639   0.30219
 Alpha virt. eigenvalues --    0.31717   0.31828   0.33237   0.34395   0.34411
 Alpha virt. eigenvalues --    0.35411   0.36701   0.36712   0.37430   0.37539
 Alpha virt. eigenvalues --    0.37876   0.38037   0.38481   0.38931   0.39345
 Alpha virt. eigenvalues --    0.39674   0.39897   0.40797   0.40802   0.41614
 Alpha virt. eigenvalues --    0.41755   0.41816   0.42276   0.42402   0.43344
 Alpha virt. eigenvalues --    0.43368   0.43686   0.44605   0.45023   0.45548
 Alpha virt. eigenvalues --    0.45574   0.45940   0.46627   0.46636   0.46913
 Alpha virt. eigenvalues --    0.47226   0.48125   0.48530   0.48795   0.49358
 Alpha virt. eigenvalues --    0.49963   0.50661   0.51167   0.51620   0.51669
 Alpha virt. eigenvalues --    0.52069   0.52875   0.53024   0.53905   0.54281
 Alpha virt. eigenvalues --    0.54799   0.56000   0.56630   0.58044   0.58726
 Alpha virt. eigenvalues --    0.58848   0.59488   0.60635   0.60743   0.61077
 Alpha virt. eigenvalues --    0.61899   0.62024   0.62079   0.62550   0.62718
 Alpha virt. eigenvalues --    0.63618   0.64684   0.65230   0.65302   0.66223
 Alpha virt. eigenvalues --    0.66514   0.67290   0.68097   0.69551   0.69725
 Alpha virt. eigenvalues --    0.70682   0.71662   0.71874   0.73498   0.73760
 Alpha virt. eigenvalues --    0.74752   0.74904   0.75049   0.75752   0.76284
 Alpha virt. eigenvalues --    0.76897   0.77428   0.77829   0.78651   0.78825
 Alpha virt. eigenvalues --    0.79591   0.79970   0.80712   0.80718   0.81820
 Alpha virt. eigenvalues --    0.83371   0.83623   0.83641   0.84260   0.84572
 Alpha virt. eigenvalues --    0.85724   0.85821   0.87545   0.87645   0.89001
 Alpha virt. eigenvalues --    0.89107   0.90471   0.91626   0.91638   0.92786
 Alpha virt. eigenvalues --    0.93552   0.94953   0.95262   0.96552   0.97913
 Alpha virt. eigenvalues --    0.98007   0.99250   0.99284   0.99948   1.02182
 Alpha virt. eigenvalues --    1.02316   1.04011   1.04508   1.04828   1.06300
 Alpha virt. eigenvalues --    1.07293   1.08943   1.08974   1.10445   1.11296
 Alpha virt. eigenvalues --    1.12209   1.13518   1.14973   1.15273   1.17231
 Alpha virt. eigenvalues --    1.17636   1.18125   1.18492   1.19548   1.20449
 Alpha virt. eigenvalues --    1.20838   1.21912   1.22570   1.23286   1.24923
 Alpha virt. eigenvalues --    1.25357   1.27229   1.27441   1.29735   1.30750
 Alpha virt. eigenvalues --    1.30776   1.31762   1.32423   1.34149   1.34562
 Alpha virt. eigenvalues --    1.35902   1.39413   1.39882   1.41044   1.41584
 Alpha virt. eigenvalues --    1.43412   1.44393   1.44834   1.45520   1.46859
 Alpha virt. eigenvalues --    1.47943   1.48687   1.49107   1.49910   1.50417
 Alpha virt. eigenvalues --    1.50974   1.51739   1.52379   1.54175   1.55431
 Alpha virt. eigenvalues --    1.55908   1.56401   1.58563   1.59685   1.60325
 Alpha virt. eigenvalues --    1.63845   1.63845   1.66299   1.66956   1.67563
 Alpha virt. eigenvalues --    1.68351   1.70185   1.72798   1.73473   1.75655
 Alpha virt. eigenvalues --    1.76469   1.77703   1.78310   1.78597   1.79231
 Alpha virt. eigenvalues --    1.79305   1.81100   1.82543   1.82908   1.84414
 Alpha virt. eigenvalues --    1.84723   1.85041   1.85077   1.86259   1.87148
 Alpha virt. eigenvalues --    1.87641   1.88723   1.88966   1.89799   1.92044
 Alpha virt. eigenvalues --    1.92215   1.93661   1.94038   1.94100   1.95189
 Alpha virt. eigenvalues --    1.95742   1.96827   1.97837   1.98919   2.00271
 Alpha virt. eigenvalues --    2.01317   2.01424   2.03302   2.03346   2.03706
 Alpha virt. eigenvalues --    2.04302   2.05231   2.07793   2.11164   2.11954
 Alpha virt. eigenvalues --    2.15696   2.16313   2.16758   2.17547   2.18577
 Alpha virt. eigenvalues --    2.22528   2.22690   2.23201   2.26544   2.27023
 Alpha virt. eigenvalues --    2.27514   2.27605   2.30245   2.31370   2.33020
 Alpha virt. eigenvalues --    2.34144   2.34299   2.34308   2.35209   2.38109
 Alpha virt. eigenvalues --    2.38344   2.39142   2.39165   2.40533   2.40985
 Alpha virt. eigenvalues --    2.41289   2.42377   2.42554   2.44014   2.49992
 Alpha virt. eigenvalues --    2.53477   2.54084   2.55176   2.55408   2.56487
 Alpha virt. eigenvalues --    2.57658   2.57861   2.59904   2.60457   2.60724
 Alpha virt. eigenvalues --    2.62618   2.63176   2.67673   2.69628   2.70974
 Alpha virt. eigenvalues --    2.71730   2.72070   2.74099   2.74809   2.75528
 Alpha virt. eigenvalues --    2.75979   2.77081   2.77763   2.78744   2.81652
 Alpha virt. eigenvalues --    2.82318   2.86814   2.87031   2.87620   2.88183
 Alpha virt. eigenvalues --    2.89926   2.90925   2.94162   2.94904   2.97350
 Alpha virt. eigenvalues --    3.00074   3.03775   3.06681   3.07491   3.10024
 Alpha virt. eigenvalues --    3.10356   3.14791   3.14864   3.16547   3.18069
 Alpha virt. eigenvalues --    3.18935   3.19784   3.20949   3.21674   3.23217
 Alpha virt. eigenvalues --    3.23995   3.25434   3.26480   3.26621   3.27367
 Alpha virt. eigenvalues --    3.27368   3.28283   3.29866   3.31729   3.32285
 Alpha virt. eigenvalues --    3.32980   3.33254   3.34001   3.34644   3.35968
 Alpha virt. eigenvalues --    3.37935   3.38410   3.43751   3.43915   3.46840
 Alpha virt. eigenvalues --    3.47037   3.48193   3.48428   3.48600   3.49434
 Alpha virt. eigenvalues --    3.53868   3.56862   3.58702   3.62677   3.63888
 Alpha virt. eigenvalues --    3.65719   3.75999   3.77814   3.80738   3.83799
 Alpha virt. eigenvalues --    3.90730   3.97411   3.98230   4.05145   4.13092
 Alpha virt. eigenvalues --    4.25013   4.38291   4.58982   4.71078   4.71455
 Alpha virt. eigenvalues --    4.73937   4.73963   4.78901   4.79029  23.16168
 Alpha virt. eigenvalues --   23.28435  23.40273  23.53576  23.61466  23.67846
 Alpha virt. eigenvalues --   23.77864  23.81105  23.83781  23.86910  23.88322
 Alpha virt. eigenvalues --   23.90272  23.90329  23.96551  23.98356  23.98459
 Alpha virt. eigenvalues --   23.99147  23.99350  24.05704  24.05895  24.13467
 Alpha virt. eigenvalues --   24.13517  24.13769  24.14275  24.14519  24.14758
          Condensed to atoms (all electrons):
               1          2          3          4          5          6
     1  C    4.995271   0.576313  -0.032581  -0.043970  -0.045737   0.466041
     2  C    0.576313   4.998737   0.461861  -0.047251  -0.050656  -0.033273
     3  C   -0.032581   0.461861   4.820019   0.503600  -0.035168  -0.044587
     4  C   -0.043970  -0.047251   0.503600   5.071135   0.405479  -0.054654
     5  C   -0.045737  -0.050656  -0.035168   0.405479   5.120142   0.504429
     6  C    0.466041  -0.033273  -0.044587  -0.054654   0.504429   4.818774
     7  C    0.013459  -0.000905   0.009675  -0.080416   0.437376  -0.048109
     8  C    0.000047   0.000078  -0.000193   0.011140  -0.041825  -0.040352
     9  C    0.006493  -0.000372   0.000096  -0.001156  -0.043675  -0.035825
    10  C   -0.065677   0.006118   0.000097   0.012209  -0.043096   0.452111
    11  C   -0.000104  -0.000044   0.000098  -0.023769  -0.072900   0.007204
    12  C   -0.000003   0.000000   0.000004   0.000747   0.006719  -0.000248
    13  C    0.000001  -0.000000  -0.000000   0.000016   0.000053   0.000021
    14  C   -0.000021   0.000002  -0.000002  -0.000119   0.011455   0.000334
    15  C    0.006321  -0.065255   0.461862  -0.047252   0.014264   0.000102
    16  C   -0.000372   0.006321  -0.032581  -0.043970  -0.000988   0.000053
    17  C    0.000053   0.000102  -0.044587  -0.054654   0.010221  -0.000053
    18  C   -0.000988   0.014264  -0.035166   0.405482  -0.081124   0.010221
    19  C    0.000001  -0.000015   0.000097   0.012209  -0.000129  -0.000001
    20  C   -0.000000   0.000001   0.000096  -0.001156   0.000014   0.000001
    21  C    0.000001  -0.000004  -0.000193   0.011140   0.000277  -0.000004
    22  C   -0.000038   0.000011   0.009676  -0.080413  -0.012958   0.000493
    23  C   -0.000000  -0.000000  -0.000002  -0.000119  -0.000020  -0.000000
    24  C    0.000000   0.000000  -0.000000   0.000016  -0.000002  -0.000001
    25  C   -0.000000  -0.000001   0.000004   0.000747  -0.000457  -0.000033
    26  C   -0.000007   0.000021   0.000097  -0.023772  -0.005354   0.000523
    27  H    0.393635  -0.041527   0.006189   0.000365   0.006416  -0.050418
    28  H   -0.040992   0.393749  -0.050411   0.005906   0.000376   0.006032
    29  H   -0.000484   0.000010  -0.000001   0.000068   0.000410   0.005995
    30  H   -0.004053   0.000620   0.000016  -0.000507   0.005780  -0.049987
    31  H    0.000007   0.000017   0.000113  -0.000042  -0.009918  -0.000378
    32  H   -0.000000  -0.000000  -0.000000  -0.000011  -0.000472   0.000008
    33  H    0.000000  -0.000000   0.000000  -0.000001   0.000042   0.000001
    34  H   -0.000001  -0.000000  -0.000000   0.000010  -0.000492   0.000049
    35  H    0.000606  -0.004088  -0.050411   0.005906  -0.000436  -0.000012
    36  H    0.000009  -0.000477   0.006189   0.000365   0.000045   0.000000
    37  H    0.000000  -0.000001   0.000016  -0.000507   0.000014  -0.000000
    38  H    0.000000   0.000000  -0.000001   0.000068  -0.000002  -0.000000
    39  H    0.000000   0.000000  -0.000000   0.000010  -0.000001  -0.000000
    40  H   -0.000000  -0.000000   0.000000  -0.000001   0.000000  -0.000000
    41  H   -0.000000   0.000000  -0.000000  -0.000011   0.000027   0.000011
    42  H    0.000011  -0.000118   0.000113  -0.000044   0.003386  -0.000203
               7          8          9         10         11         12
     1  C    0.013459   0.000047   0.006493  -0.065677  -0.000104  -0.000003
     2  C   -0.000905   0.000078  -0.000372   0.006118  -0.000044   0.000000
     3  C    0.009675  -0.000193   0.000096   0.000097   0.000098   0.000004
     4  C   -0.080416   0.011140  -0.001156   0.012209  -0.023769   0.000747
     5  C    0.437376  -0.041825  -0.043675  -0.043096  -0.072900   0.006719
     6  C   -0.048109  -0.040352  -0.035825   0.452111   0.007204  -0.000248
     7  C    4.943691   0.504164  -0.050545  -0.046370   0.514060  -0.029615
     8  C    0.504164   4.801920   0.458576  -0.033697  -0.062997  -0.035587
     9  C   -0.050545   0.458576   4.993829   0.585040   0.010957  -0.000019
    10  C   -0.046370  -0.033697   0.585040   5.005099  -0.000451   0.000085
    11  C    0.514060  -0.062997   0.010957  -0.000451   5.034435   0.551843
    12  C   -0.029615  -0.035587  -0.000019   0.000085   0.551843   4.922607
    13  C   -0.035550  -0.034614   0.006035  -0.000277  -0.045916   0.496987
    14  C   -0.048602   0.496552  -0.067390   0.005398  -0.047308  -0.046881
    15  C    0.000011  -0.000004   0.000001  -0.000015   0.000021  -0.000001
    16  C   -0.000038   0.000001  -0.000000   0.000001  -0.000007  -0.000000
    17  C    0.000492  -0.000004   0.000001  -0.000001   0.000522  -0.000033
    18  C   -0.012956   0.000277   0.000014  -0.000129  -0.005354  -0.000457
    19  C    0.000013  -0.000000  -0.000000  -0.000000  -0.000181  -0.000006
    20  C   -0.000015  -0.000000  -0.000000  -0.000000   0.000452  -0.000022
    21  C    0.000134  -0.000013  -0.000000  -0.000000  -0.002289   0.000168
    22  C   -0.003211   0.000134  -0.000015   0.000013  -0.014108   0.000768
    23  C    0.000029   0.000002   0.000000   0.000000  -0.000247   0.000084
    24  C    0.000056  -0.000000  -0.000000  -0.000000  -0.000028   0.000134
    25  C    0.000768   0.000168  -0.000022  -0.000006  -0.000511   0.000272
    26  C   -0.014110  -0.002290   0.000452  -0.000181  -0.002191  -0.000511
    27  H   -0.000473   0.000019   0.000549  -0.003804   0.000014  -0.000000
    28  H    0.000053  -0.000000   0.000010  -0.000489  -0.000001   0.000000
    29  H    0.006178  -0.048888   0.391943  -0.040961  -0.000475   0.000032
    30  H    0.000641   0.005822  -0.040104   0.392366   0.000058   0.000000
    31  H   -0.040962   0.005811  -0.000344   0.000020   0.389979  -0.038278
    32  H    0.005733   0.000327   0.000042  -0.000000  -0.040807   0.397351
    33  H    0.000218   0.006215  -0.000459   0.000006   0.006480  -0.044828
    34  H    0.006209  -0.049428  -0.004494   0.000531  -0.000026   0.006225
    35  H    0.000020  -0.000000   0.000000  -0.000002  -0.000001   0.000000
    36  H   -0.000002   0.000000  -0.000000   0.000000   0.000002   0.000000
    37  H   -0.000001   0.000000   0.000000   0.000000  -0.000000  -0.000000
    38  H    0.000000   0.000000  -0.000000  -0.000000   0.000008   0.000000
    39  H   -0.000000  -0.000000   0.000000   0.000000   0.000007   0.000005
    40  H    0.000003   0.000000  -0.000000   0.000000   0.000010   0.000003
    41  H    0.000052   0.000076  -0.000004  -0.000005   0.000001  -0.000003
    42  H   -0.005649  -0.002168   0.000340   0.000444  -0.001958  -0.000133
              13         14         15         16         17         18
     1  C    0.000001  -0.000021   0.006321  -0.000372   0.000053  -0.000988
     2  C   -0.000000   0.000002  -0.065255   0.006321   0.000102   0.014264
     3  C   -0.000000  -0.000002   0.461862  -0.032581  -0.044587  -0.035166
     4  C    0.000016  -0.000119  -0.047252  -0.043970  -0.054654   0.405482
     5  C    0.000053   0.011455   0.014264  -0.000988   0.010221  -0.081124
     6  C    0.000021   0.000334   0.000102   0.000053  -0.000053   0.010221
     7  C   -0.035550  -0.048602   0.000011  -0.000038   0.000492  -0.012956
     8  C   -0.034614   0.496552  -0.000004   0.000001  -0.000004   0.000277
     9  C    0.006035  -0.067390   0.000001  -0.000000   0.000001   0.000014
    10  C   -0.000277   0.005398  -0.000015   0.000001  -0.000001  -0.000129
    11  C   -0.045916  -0.047308   0.000021  -0.000007   0.000522  -0.005354
    12  C    0.496987  -0.046881  -0.000001  -0.000000  -0.000033  -0.000457
    13  C    4.931182   0.557314   0.000000   0.000000  -0.000001  -0.000002
    14  C    0.557314   5.004489  -0.000000  -0.000000  -0.000000  -0.000020
    15  C    0.000000  -0.000000   4.998738   0.576312  -0.033273  -0.050656
    16  C    0.000000  -0.000000   0.576312   4.995272   0.466041  -0.045735
    17  C   -0.000001  -0.000000  -0.033273   0.466041   4.818775   0.504429
    18  C   -0.000002  -0.000020  -0.050656  -0.045735   0.504429   5.120121
    19  C   -0.000000   0.000000   0.006118  -0.065677   0.452112  -0.043097
    20  C   -0.000000   0.000000  -0.000372   0.006493  -0.035825  -0.043675
    21  C   -0.000000   0.000002   0.000078   0.000047  -0.040352  -0.041824
    22  C    0.000056   0.000029  -0.000905   0.013459  -0.048109   0.437379
    23  C   -0.000004  -0.000000   0.000002  -0.000021   0.000333   0.011455
    24  C   -0.000013  -0.000004  -0.000000   0.000001   0.000021   0.000053
    25  C    0.000134   0.000084   0.000000  -0.000003  -0.000248   0.006719
    26  C   -0.000028  -0.000247  -0.000044  -0.000104   0.007204  -0.072900
    27  H    0.000000  -0.000002  -0.000477   0.000009   0.000000   0.000045
    28  H   -0.000000   0.000000  -0.004088   0.000606  -0.000012  -0.000436
    29  H    0.000359  -0.003405   0.000000   0.000000  -0.000000  -0.000002
    30  H    0.000009  -0.000499  -0.000001   0.000000  -0.000000   0.000014
    31  H    0.005958  -0.000094  -0.000118   0.000011  -0.000203   0.003386
    32  H   -0.045912   0.006337   0.000000  -0.000000   0.000011   0.000027
    33  H    0.398556  -0.044076  -0.000000  -0.000000  -0.000000   0.000000
    34  H   -0.041753   0.391414   0.000000   0.000000  -0.000000  -0.000001
    35  H    0.000000   0.000000   0.393749  -0.040992   0.006032   0.000376
    36  H   -0.000000   0.000000  -0.041527   0.393635  -0.050418   0.006416
    37  H    0.000000  -0.000000   0.000620  -0.004053  -0.049987   0.005780
    38  H    0.000000  -0.000000   0.000010  -0.000484   0.005995   0.000410
    39  H    0.000000  -0.000000  -0.000000  -0.000001   0.000049  -0.000492
    40  H   -0.000000  -0.000001  -0.000000   0.000000   0.000001   0.000042
    41  H    0.000027   0.000072  -0.000000  -0.000000   0.000008  -0.000472
    42  H    0.000068   0.000072   0.000017   0.000007  -0.000378  -0.009918
              19         20         21         22         23         24
     1  C    0.000001  -0.000000   0.000001  -0.000038  -0.000000   0.000000
     2  C   -0.000015   0.000001  -0.000004   0.000011  -0.000000   0.000000
     3  C    0.000097   0.000096  -0.000193   0.009676  -0.000002  -0.000000
     4  C    0.012209  -0.001156   0.011140  -0.080413  -0.000119   0.000016
     5  C   -0.000129   0.000014   0.000277  -0.012958  -0.000020  -0.000002
     6  C   -0.000001   0.000001  -0.000004   0.000493  -0.000000  -0.000001
     7  C    0.000013  -0.000015   0.000134  -0.003211   0.000029   0.000056
     8  C   -0.000000  -0.000000  -0.000013   0.000134   0.000002  -0.000000
     9  C   -0.000000  -0.000000  -0.000000  -0.000015   0.000000  -0.000000
    10  C   -0.000000  -0.000000  -0.000000   0.000013   0.000000  -0.000000
    11  C   -0.000181   0.000452  -0.002289  -0.014108  -0.000247  -0.000028
    12  C   -0.000006  -0.000022   0.000168   0.000768   0.000084   0.000134
    13  C   -0.000000  -0.000000  -0.000000   0.000056  -0.000004  -0.000013
    14  C    0.000000   0.000000   0.000002   0.000029  -0.000000  -0.000004
    15  C    0.006118  -0.000372   0.000078  -0.000905   0.000002  -0.000000
    16  C   -0.065677   0.006493   0.000047   0.013459  -0.000021   0.000001
    17  C    0.452112  -0.035825  -0.040352  -0.048109   0.000333   0.000021
    18  C   -0.043097  -0.043675  -0.041824   0.437379   0.011455   0.000053
    19  C    5.005099   0.585040  -0.033697  -0.046370   0.005398  -0.000277
    20  C    0.585040   4.993828   0.458577  -0.050546  -0.067390   0.006035
    21  C   -0.033697   0.458577   4.801914   0.504167   0.496552  -0.034614
    22  C   -0.046370  -0.050546   0.504167   4.943682  -0.048601  -0.035550
    23  C    0.005398  -0.067390   0.496552  -0.048601   5.004490   0.557313
    24  C   -0.000277   0.006035  -0.034614  -0.035550   0.557313   4.931182
    25  C    0.000085  -0.000019  -0.035587  -0.029614  -0.046880   0.496987
    26  C   -0.000451   0.010957  -0.062997   0.514056  -0.047308  -0.045916
    27  H    0.000000  -0.000000   0.000000  -0.000002   0.000000  -0.000000
    28  H   -0.000002   0.000000  -0.000000   0.000020   0.000000   0.000000
    29  H   -0.000000  -0.000000   0.000000   0.000000  -0.000000   0.000000
    30  H    0.000000   0.000000   0.000000  -0.000001  -0.000000   0.000000
    31  H    0.000444   0.000340  -0.002167  -0.005648   0.000072   0.000068
    32  H   -0.000005  -0.000004   0.000076   0.000052   0.000072   0.000027
    33  H    0.000000  -0.000000   0.000000   0.000003  -0.000001  -0.000000
    34  H    0.000000   0.000000  -0.000000  -0.000000  -0.000000   0.000000
    35  H   -0.000489   0.000010  -0.000000   0.000053   0.000000  -0.000000
    36  H   -0.003804   0.000549   0.000019  -0.000473  -0.000002   0.000000
    37  H    0.392365  -0.040104   0.005822   0.000641  -0.000499   0.000009
    38  H   -0.040961   0.391943  -0.048887   0.006178  -0.003405   0.000359
    39  H    0.000531  -0.004494  -0.049428   0.006209   0.391414  -0.041753
    40  H    0.000006  -0.000459   0.006215   0.000218  -0.044076   0.398556
    41  H   -0.000000   0.000042   0.000327   0.005733   0.006337  -0.045912
    42  H    0.000020  -0.000344   0.005810  -0.040964  -0.000094   0.005958
              25         26         27         28         29         30
     1  C   -0.000000  -0.000007   0.393635  -0.040992  -0.000484  -0.004053
     2  C   -0.000001   0.000021  -0.041527   0.393749   0.000010   0.000620
     3  C    0.000004   0.000097   0.006189  -0.050411  -0.000001   0.000016
     4  C    0.000747  -0.023772   0.000365   0.005906   0.000068  -0.000507
     5  C   -0.000457  -0.005354   0.006416   0.000376   0.000410   0.005780
     6  C   -0.000033   0.000523  -0.050418   0.006032   0.005995  -0.049987
     7  C    0.000768  -0.014110  -0.000473   0.000053   0.006178   0.000641
     8  C    0.000168  -0.002290   0.000019  -0.000000  -0.048888   0.005822
     9  C   -0.000022   0.000452   0.000549   0.000010   0.391943  -0.040104
    10  C   -0.000006  -0.000181  -0.003804  -0.000489  -0.040961   0.392366
    11  C   -0.000511  -0.002191   0.000014  -0.000001  -0.000475   0.000058
    12  C    0.000272  -0.000511  -0.000000   0.000000   0.000032   0.000000
    13  C    0.000134  -0.000028   0.000000  -0.000000   0.000359   0.000009
    14  C    0.000084  -0.000247  -0.000002   0.000000  -0.003405  -0.000499
    15  C    0.000000  -0.000044  -0.000477  -0.004088   0.000000  -0.000001
    16  C   -0.000003  -0.000104   0.000009   0.000606   0.000000   0.000000
    17  C   -0.000248   0.007204   0.000000  -0.000012  -0.000000  -0.000000
    18  C    0.006719  -0.072900   0.000045  -0.000436  -0.000002   0.000014
    19  C    0.000085  -0.000451   0.000000  -0.000002  -0.000000   0.000000
    20  C   -0.000019   0.010957  -0.000000   0.000000  -0.000000   0.000000
    21  C   -0.035587  -0.062997   0.000000  -0.000000   0.000000   0.000000
    22  C   -0.029614   0.514056  -0.000002   0.000020   0.000000  -0.000001
    23  C   -0.046880  -0.047308   0.000000   0.000000  -0.000000  -0.000000
    24  C    0.496987  -0.045916  -0.000000   0.000000   0.000000   0.000000
    25  C    4.922607   0.551843   0.000000   0.000000   0.000000  -0.000000
    26  C    0.551843   5.034444   0.000002  -0.000001   0.000008  -0.000000
    27  H    0.000000   0.000002   0.500145  -0.007035  -0.000040   0.004446
    28  H    0.000000  -0.000001  -0.007035   0.499207  -0.000001  -0.000035
    29  H    0.000000   0.000008  -0.000040  -0.000001   0.501010  -0.007394
    30  H   -0.000000  -0.000000   0.004446  -0.000035  -0.007394   0.500984
    31  H   -0.000133  -0.001958   0.000000  -0.000000   0.000017  -0.000001
    32  H   -0.000003   0.000001   0.000000  -0.000000  -0.000002   0.000000
    33  H    0.000003   0.000010  -0.000000   0.000000  -0.000034  -0.000001
    34  H    0.000005   0.000007   0.000000  -0.000000   0.004726  -0.000037
    35  H    0.000000  -0.000001  -0.000035   0.004327  -0.000000  -0.000000
    36  H   -0.000000   0.000014  -0.000001  -0.000035   0.000000  -0.000000
    37  H    0.000000   0.000058  -0.000000  -0.000000   0.000000  -0.000000
    38  H    0.000032  -0.000475   0.000000  -0.000000  -0.000000   0.000000
    39  H    0.006225  -0.000026   0.000000  -0.000000   0.000000   0.000000
    40  H   -0.044828   0.006480  -0.000000   0.000000  -0.000000  -0.000000
    41  H    0.397351  -0.040807   0.000000  -0.000000  -0.000000  -0.000000
    42  H   -0.038277   0.389980  -0.000005   0.000000   0.000014   0.000015
              31         32         33         34         35         36
     1  C    0.000007  -0.000000   0.000000  -0.000001   0.000606   0.000009
     2  C    0.000017  -0.000000  -0.000000  -0.000000  -0.004088  -0.000477
     3  C    0.000113  -0.000000   0.000000  -0.000000  -0.050411   0.006189
     4  C   -0.000042  -0.000011  -0.000001   0.000010   0.005906   0.000365
     5  C   -0.009918  -0.000472   0.000042  -0.000492  -0.000436   0.000045
     6  C   -0.000378   0.000008   0.000001   0.000049  -0.000012   0.000000
     7  C   -0.040962   0.005733   0.000218   0.006209   0.000020  -0.000002
     8  C    0.005811   0.000327   0.006215  -0.049428  -0.000000   0.000000
     9  C   -0.000344   0.000042  -0.000459  -0.004494   0.000000  -0.000000
    10  C    0.000020  -0.000000   0.000006   0.000531  -0.000002   0.000000
    11  C    0.389979  -0.040807   0.006480  -0.000026  -0.000001   0.000002
    12  C   -0.038278   0.397351  -0.044828   0.006225   0.000000   0.000000
    13  C    0.005958  -0.045912   0.398556  -0.041753   0.000000  -0.000000
    14  C   -0.000094   0.006337  -0.044076   0.391414   0.000000   0.000000
    15  C   -0.000118   0.000000  -0.000000   0.000000   0.393749  -0.041527
    16  C    0.000011  -0.000000  -0.000000   0.000000  -0.040992   0.393635
    17  C   -0.000203   0.000011  -0.000000  -0.000000   0.006032  -0.050418
    18  C    0.003386   0.000027   0.000000  -0.000001   0.000376   0.006416
    19  C    0.000444  -0.000005   0.000000   0.000000  -0.000489  -0.003804
    20  C    0.000340  -0.000004  -0.000000   0.000000   0.000010   0.000549
    21  C   -0.002167   0.000076   0.000000  -0.000000  -0.000000   0.000019
    22  C   -0.005648   0.000052   0.000003  -0.000000   0.000053  -0.000473
    23  C    0.000072   0.000072  -0.000001  -0.000000   0.000000  -0.000002
    24  C    0.000068   0.000027  -0.000000   0.000000  -0.000000   0.000000
    25  C   -0.000133  -0.000003   0.000003   0.000005   0.000000  -0.000000
    26  C   -0.001958   0.000001   0.000010   0.000007  -0.000001   0.000014
    27  H    0.000000   0.000000  -0.000000   0.000000  -0.000035  -0.000001
    28  H   -0.000000  -0.000000   0.000000  -0.000000   0.004327  -0.000035
    29  H    0.000017  -0.000002  -0.000034   0.004726  -0.000000   0.000000
    30  H   -0.000001   0.000000  -0.000001  -0.000037  -0.000000  -0.000000
    31  H    0.470476  -0.007007  -0.000380   0.000091   0.000000  -0.000005
    32  H   -0.007007   0.499040  -0.006012  -0.000407  -0.000000   0.000000
    33  H   -0.000380  -0.006012   0.500887  -0.007017   0.000000  -0.000000
    34  H    0.000091  -0.000407  -0.007017   0.504692  -0.000000   0.000000
    35  H    0.000000  -0.000000   0.000000  -0.000000   0.499207  -0.007035
    36  H   -0.000005   0.000000  -0.000000   0.000000  -0.007035   0.500145
    37  H    0.000015  -0.000000  -0.000000   0.000000  -0.000035   0.004446
    38  H    0.000014  -0.000000  -0.000000   0.000000  -0.000001  -0.000040
    39  H   -0.000005   0.000002  -0.000000  -0.000000  -0.000000   0.000000
    40  H    0.000002  -0.000001   0.000000  -0.000000   0.000000  -0.000000
    41  H    0.000001   0.000000  -0.000001   0.000002  -0.000000   0.000000
    42  H    0.000178   0.000001   0.000002  -0.000005  -0.000000   0.000000
              37         38         39         40         41         42
     1  C    0.000000   0.000000   0.000000  -0.000000  -0.000000   0.000011
     2  C   -0.000001   0.000000   0.000000  -0.000000   0.000000  -0.000118
     3  C    0.000016  -0.000001  -0.000000   0.000000  -0.000000   0.000113
     4  C   -0.000507   0.000068   0.000010  -0.000001  -0.000011  -0.000044
     5  C    0.000014  -0.000002  -0.000001   0.000000   0.000027   0.003386
     6  C   -0.000000  -0.000000  -0.000000  -0.000000   0.000011  -0.000203
     7  C   -0.000001   0.000000  -0.000000   0.000003   0.000052  -0.005649
     8  C    0.000000   0.000000  -0.000000   0.000000   0.000076  -0.002168
     9  C    0.000000  -0.000000   0.000000  -0.000000  -0.000004   0.000340
    10  C    0.000000  -0.000000   0.000000   0.000000  -0.000005   0.000444
    11  C   -0.000000   0.000008   0.000007   0.000010   0.000001  -0.001958
    12  C   -0.000000   0.000000   0.000005   0.000003  -0.000003  -0.000133
    13  C    0.000000   0.000000   0.000000  -0.000000   0.000027   0.000068
    14  C   -0.000000  -0.000000  -0.000000  -0.000001   0.000072   0.000072
    15  C    0.000620   0.000010  -0.000000  -0.000000  -0.000000   0.000017
    16  C   -0.004053  -0.000484  -0.000001   0.000000  -0.000000   0.000007
    17  C   -0.049987   0.005995   0.000049   0.000001   0.000008  -0.000378
    18  C    0.005780   0.000410  -0.000492   0.000042  -0.000472  -0.009918
    19  C    0.392365  -0.040961   0.000531   0.000006  -0.000000   0.000020
    20  C   -0.040104   0.391943  -0.004494  -0.000459   0.000042  -0.000344
    21  C    0.005822  -0.048887  -0.049428   0.006215   0.000327   0.005810
    22  C    0.000641   0.006178   0.006209   0.000218   0.005733  -0.040964
    23  C   -0.000499  -0.003405   0.391414  -0.044076   0.006337  -0.000094
    24  C    0.000009   0.000359  -0.041753   0.398556  -0.045912   0.005958
    25  C    0.000000   0.000032   0.006225  -0.044828   0.397351  -0.038277
    26  C    0.000058  -0.000475  -0.000026   0.006480  -0.040807   0.389980
    27  H   -0.000000   0.000000   0.000000  -0.000000   0.000000  -0.000005
    28  H   -0.000000  -0.000000  -0.000000   0.000000  -0.000000   0.000000
    29  H    0.000000  -0.000000   0.000000  -0.000000  -0.000000   0.000014
    30  H   -0.000000   0.000000   0.000000  -0.000000  -0.000000   0.000015
    31  H    0.000015   0.000014  -0.000005   0.000002   0.000001   0.000178
    32  H   -0.000000  -0.000000   0.000002  -0.000001   0.000000   0.000001
    33  H   -0.000000  -0.000000  -0.000000   0.000000  -0.000001   0.000002
    34  H    0.000000   0.000000  -0.000000  -0.000000   0.000002  -0.000005
    35  H   -0.000035  -0.000001  -0.000000   0.000000  -0.000000  -0.000000
    36  H    0.004446  -0.000040   0.000000  -0.000000   0.000000   0.000000
    37  H    0.500984  -0.007394  -0.000037  -0.000001   0.000000  -0.000001
    38  H   -0.007394   0.501010   0.004726  -0.000034  -0.000002   0.000017
    39  H   -0.000037   0.004726   0.504692  -0.007017  -0.000407   0.000091
    40  H   -0.000001  -0.000034  -0.007017   0.500888  -0.006012  -0.000380
    41  H    0.000000  -0.000002  -0.000407  -0.006012   0.499041  -0.007007
    42  H   -0.000001   0.000017   0.000091  -0.000380  -0.007007   0.470475
 Mulliken charges:
               1
     1  C   -0.223239
     2  C   -0.214238
     3  C    0.045967
     4  C    0.057175
     5  C   -0.081516
     6  C    0.085738
     7  C   -0.025507
     8  C    0.060734
     9  C   -0.209950
    10  C   -0.224376
    11  C   -0.194477
    12  C   -0.187408
    13  C   -0.192704
    14  C   -0.214885
    15  C   -0.214237
    16  C   -0.223241
    17  C    0.085737
    18  C   -0.081508
    19  C   -0.224375
    20  C   -0.209951
    21  C    0.060735
    22  C   -0.025503
    23  C   -0.214887
    24  C   -0.192703
    25  C   -0.187410
    26  C   -0.194478
    27  H    0.191985
    28  H    0.193254
    29  H    0.190915
    30  H    0.191850
    31  H    0.230625
    32  H    0.191540
    33  H    0.190383
    34  H    0.189701
    35  H    0.193254
    36  H    0.191984
    37  H    0.191850
    38  H    0.190915
    39  H    0.189701
    40  H    0.190383
    41  H    0.191540
    42  H    0.230629
 Sum of Mulliken charges =  -0.00000
 Mulliken charges with hydrogens summed into heavy atoms:
               1
     1  C   -0.031255
     2  C   -0.020984
     3  C    0.045967
     4  C    0.057175
     5  C   -0.081516
     6  C    0.085738
     7  C   -0.025507
     8  C    0.060734
     9  C   -0.019036
    10  C   -0.032526
    11  C    0.036148
    12  C    0.004132
    13  C   -0.002320
    14  C   -0.025184
    15  C   -0.020983
    16  C   -0.031257
    17  C    0.085737
    18  C   -0.081508
    19  C   -0.032525
    20  C   -0.019036
    21  C    0.060735
    22  C   -0.025503
    23  C   -0.025186
    24  C   -0.002320
    25  C    0.004129
    26  C    0.036151
 Electronic spatial extent (au):  <R**2>=           7287.7321
 Charge=             -0.0000 electrons
 Dipole moment (field-independent basis, Debye):
    X=              0.0000    Y=             -0.0346    Z=              0.0000  Tot=              0.0346
 Quadrupole moment (field-independent basis, Debye-Ang):
   XX=           -134.1840   YY=           -132.8072   ZZ=           -152.7301
   XY=             -0.0000   XZ=              8.3413   YZ=             -0.0006
 Traceless Quadrupole moment (field-independent basis, Debye-Ang):
   XX=              5.7231   YY=              7.0999   ZZ=            -12.8230
   XY=             -0.0000   XZ=              8.3413   YZ=             -0.0006
 Octapole moment (field-independent basis, Debye-Ang**2):
  XXX=             -0.0022  YYY=             18.7693  ZZZ=              0.0007  XYY=              0.0041
  XXY=            -10.4430  XXZ=              0.0046  XZZ=             -0.0004  YZZ=            -17.3910
  YYZ=             -0.0026  XYZ=             19.5109
 Hexadecapole moment (field-independent basis, Debye-Ang**3):
 XXXX=          -4723.9363 YYYY=          -3809.3862 ZZZZ=          -1087.5992 XXXY=              0.0523
 XXXZ=            220.7099 YYYX=              0.0368 YYYZ=             -0.0032 ZZZX=             73.5306
 ZZZY=             -0.0015 XXYY=          -1393.0811 XXZZ=          -1078.4007 YYZZ=           -836.9667
 XXYZ=             -0.0151 YYXZ=             21.9753 ZZXY=              0.0229
 N-N= 2.119265198461D+03 E-N=-6.560451254300D+03  KE= 9.962304582552D+02
 There are a total of      954072 grid points.
 ElSum from          density=      172.0000640406
 ElSum from atomic densities=      172.0001130572
 Hirshfeld populations at iteration   1 (CA, CB, DipXYZ):
               1          2          3          4          5
     1  C    3.021969   3.021969   0.059504  -0.002193   0.028229
     2  C    3.021696   3.021696  -0.032739   0.054964  -0.014138
     3  C    3.001933   3.001933   0.000000   0.001362   0.000000
     4  C    2.997081   2.997081  -0.000002  -0.026725  -0.000001
     5  C    2.998038   2.998038  -0.022422  -0.020667  -0.000163
     6  C    3.002640   3.002640   0.006788   0.000189   0.002473
     7  C    2.999507   2.999507  -0.006245   0.013402   0.023456
     8  C    3.002181   3.002181  -0.002848   0.007439   0.005823
     9  C    3.021697   3.021697   0.033410  -0.060459  -0.004482
    10  C    3.022945   3.022945   0.015352   0.061339   0.020715
    11  C    3.019301   3.019301  -0.030007   0.028728   0.002278
    12  C    3.020422   3.020422  -0.028759  -0.041272  -0.037216
    13  C    3.021771   3.021771  -0.005997  -0.057686  -0.032250
    14  C    3.022105   3.022105   0.048436  -0.004267   0.021931
    15  C    3.021696   3.021696   0.032748   0.054959   0.014137
    16  C    3.021969   3.021969  -0.059504  -0.002183  -0.028229
    17  C    3.002640   3.002640  -0.006788   0.000189  -0.002472
    18  C    2.998039   2.998039   0.022418  -0.020670   0.000163
    19  C    3.022945   3.022945  -0.015342   0.061341  -0.020715
    20  C    3.021697   3.021697  -0.033420  -0.060454   0.004483
    21  C    3.002181   3.002181   0.002849   0.007439  -0.005823
    22  C    2.999507   2.999507   0.006245   0.013401  -0.023454
    23  C    3.022105   3.022105  -0.048437  -0.004260  -0.021929
    24  C    3.021771   3.021771   0.005988  -0.057687   0.032250
    25  C    3.020422   3.020422   0.028753  -0.041277   0.037215
    26  C    3.019301   3.019301   0.030011   0.028723  -0.002279
    27  H    0.477589   0.477589   0.114709   0.077260   0.051633
    28  H    0.477410   0.477410  -0.001839   0.147600   0.008225
    29  H    0.477720   0.477720   0.129717  -0.063091   0.029539
    30  H    0.478071   0.478071   0.110489   0.073784   0.063797
    31  H    0.481555   0.481555  -0.106958   0.043155  -0.058012
    32  H    0.477239   0.477239  -0.096175  -0.065232  -0.094651
    33  H    0.477632   0.477632   0.030897  -0.134304  -0.057704
    34  H    0.479018   0.479018   0.127603  -0.065674   0.027631
    35  H    0.477410   0.477410   0.001863   0.147600  -0.008224
    36  H    0.477589   0.477589  -0.114697   0.077279  -0.051631
    37  H    0.478071   0.478071  -0.110478   0.073802  -0.063795
    38  H    0.477720   0.477720  -0.129728  -0.063070  -0.029536
    39  H    0.479018   0.479018  -0.127614  -0.065653  -0.027628
    40  H    0.477632   0.477632  -0.030917  -0.134298   0.057705
    41  H    0.477239   0.477239   0.096167  -0.065248   0.094648
    42  H    0.481556   0.481556   0.106964   0.043136   0.058008
       Tot  86.000032  86.000032  -0.000007  -0.039278   0.000008

 Dip from Atomic Chgs              0.000015   0.025746  -0.000005
         Total Dipole              0.000009  -0.013532   0.000003

 Hirshfeld charges, spin densities, dipoles, and CM5 charges using IRadAn=      5:
              Q-H        S-H        Dx         Dy         Dz        Q-CM5   
     1  C   -0.043939   0.000000   0.059504  -0.002193   0.028229  -0.096691
     2  C   -0.043392   0.000000  -0.032739   0.054964  -0.014138  -0.096116
     3  C   -0.003865   0.000000   0.000000   0.001362   0.000000  -0.010938
     4  C    0.005838   0.000000  -0.000002  -0.026725  -0.000001   0.003931
     5  C    0.003923   0.000000  -0.022422  -0.020667  -0.000163   0.001282
     6  C   -0.005280   0.000000   0.006788   0.000189   0.002473  -0.012456
     7  C    0.000987   0.000000  -0.006245   0.013402   0.023456  -0.003946
     8  C   -0.004363   0.000000  -0.002848   0.007439   0.005823  -0.011753
     9  C   -0.043394   0.000000   0.033410  -0.060459  -0.004482  -0.096191
    10  C   -0.045891   0.000000   0.015352   0.061339   0.020715  -0.098669
    11  C   -0.038602   0.000000  -0.030007   0.028728   0.002278  -0.091382
    12  C   -0.040844   0.000000  -0.028759  -0.041272  -0.037216  -0.096198
    13  C   -0.043542   0.000000  -0.005997  -0.057686  -0.032250  -0.098765
    14  C   -0.044211   0.000000   0.048436  -0.004267   0.021931  -0.096959
    15  C   -0.043393   0.000000   0.032748   0.054959   0.014137  -0.096116
    16  C   -0.043939   0.000000  -0.059504  -0.002183  -0.028229  -0.096691
    17  C   -0.005280   0.000000  -0.006788   0.000189  -0.002472  -0.012456
    18  C    0.003923   0.000000   0.022418  -0.020670   0.000163   0.001282
    19  C   -0.045891   0.000000  -0.015342   0.061341  -0.020715  -0.098669
    20  C   -0.043394   0.000000  -0.033420  -0.060454   0.004483  -0.096191
    21  C   -0.004363   0.000000   0.002849   0.007439  -0.005823  -0.011753
    22  C    0.000986   0.000000   0.006245   0.013401  -0.023454  -0.003947
    23  C   -0.044211   0.000000  -0.048437  -0.004260  -0.021929  -0.096959
    24  C   -0.043542   0.000000   0.005988  -0.057687   0.032250  -0.098765
    25  C   -0.040844   0.000000   0.028753  -0.041277   0.037215  -0.096198
    26  C   -0.038603   0.000000   0.030011   0.028723  -0.002279  -0.091382
    27  H    0.044823   0.000000   0.114709   0.077260   0.051633   0.101220
    28  H    0.045180   0.000000  -0.001839   0.147600   0.008225   0.101587
    29  H    0.044559   0.000000   0.129717  -0.063091   0.029539   0.100865
    30  H    0.043858   0.000000   0.110489   0.073784   0.063797   0.100289
    31  H    0.036889   0.000000  -0.106958   0.043155  -0.058012   0.097924
    32  H    0.045522   0.000000  -0.096175  -0.065232  -0.094651   0.101040
    33  H    0.044736   0.000000   0.030897  -0.134304  -0.057704   0.100098
    34  H    0.041964   0.000000   0.127603  -0.065674   0.027631   0.098295
    35  H    0.045180   0.000000   0.001863   0.147600  -0.008224   0.101587
    36  H    0.044823   0.000000  -0.114697   0.077279  -0.051631   0.101219
    37  H    0.043858   0.000000  -0.110478   0.073802  -0.063795   0.100289
    38  H    0.044559   0.000000  -0.129728  -0.063070  -0.029536   0.100865
    39  H    0.041964   0.000000  -0.127614  -0.065653  -0.027628   0.098295
    40  H    0.044736   0.000000  -0.030917  -0.134298   0.057705   0.100098
    41  H    0.045522   0.000000   0.096167  -0.065248   0.094648   0.101040
    42  H    0.036888   0.000000   0.106964   0.043136   0.058008   0.097923
       Tot  -0.000064   0.000000  -0.000007  -0.039278   0.000008  -0.000064
 Hirshfeld charges with hydrogens summed into heavy atoms:
              Q-H       Q-CM5   
     1  C    0.000884   0.004529
     2  C    0.001787   0.005471
     3  C   -0.003865  -0.010938
     4  C    0.005838   0.003931
     5  C    0.003923   0.001282
     6  C   -0.005280  -0.012456
     7  C    0.000987  -0.003946
     8  C   -0.004363  -0.011753
     9  C    0.001165   0.004674
    10  C   -0.002033   0.001620
    11  C   -0.001713   0.006542
    12  C    0.004678   0.004842
    13  C    0.001194   0.001333
    14  C   -0.002247   0.001336
    15  C    0.001787   0.005471
    16  C    0.000884   0.004529
    17  C   -0.005280  -0.012456
    18  C    0.003923   0.001282
    19  C   -0.002033   0.001620
    20  C    0.001165   0.004674
    21  C   -0.004363  -0.011753
    22  C    0.000986  -0.003947
    23  C   -0.002247   0.001335
    24  C    0.001194   0.001333
    25  C    0.004677   0.004841
    26  C   -0.001715   0.006541
 
 EQQ=  0.00000000000     EQD=  0.00000000000     EDD= 0.169905484260E-01
 EQQ+QD+DD= 0.169905484260E-01
 
 1\1\GINC-CU24\SP\RB3LYP\6-311G(d)\C26H16\WANG\10-Jun-2025\0\\# B3LYP/6
 -311G* Pop=Hirshfeld NOSYMM\\From ../../6helicene_opt.out\\0,1\C,0,2.2
 92601,2.896772,0.780853\C,0,1.161623,3.563987,0.410536\C,0,0.00022,2.8
 48267,-0.000016\C,0,0.000106,1.419074,-0.000019\C,0,1.297935,0.761672,
 0.039104\C,0,2.40064,1.493321,0.559982\C,0,1.583059,-0.550049,-0.53298
 2\C,0,2.847206,-1.169299,-0.274951\C,0,3.84804,-0.460953,0.460526\C,0,
 3.649144,0.838967,0.810713\C,0,0.706841,-1.216336,-1.42656\C,0,1.01872
 5,-2.449059,-1.966028\C,0,2.228045,-3.090776,-1.635297\C,0,3.127974,-2
 .449963,-0.810328\C,0,-1.161069,3.564175,-0.41056\C,0,-2.292161,2.8971
 42,-0.780863\C,0,-2.400425,1.49371,-0.559986\C,0,-1.297829,0.761883,-0
 .039127\C,0,-3.649042,0.839558,-0.810688\C,0,-3.848143,-0.460328,-0.46
 0489\C,0,-2.847407,-1.168834,0.274968\C,0,-1.583154,-0.549789,0.532967
 \C,0,-3.128369,-2.449451,0.810356\C,0,-2.228519,-3.09041,1.635299\C,0,
 -1.019084,-2.448891,1.965992\C,0,-0.707015,-1.216219,1.426514\H,0,3.15
 6802,3.432239,1.16572\H,0,1.111592,4.648913,0.458404\H,0,4.793454,-0.9
 56124,0.668169\H,0,4.441186,1.413392,1.285017\H,0,-0.220043,-0.738232,
 -1.715109\H,0,0.325164,-2.921739,-2.656123\H,0,2.460547,-4.067908,-2.0
 49863\H,0,4.087879,-2.906969,-0.580798\H,0,-1.110865,4.649093,-0.45842
 5\H,0,-3.156281,3.43275,-1.165717\H,0,-4.441,1.41411,-1.284977\H,0,-4.
 793642,-0.955346,-0.668109\H,0,-4.088354,-2.906302,0.580853\H,0,-2.461
 168,-4.067504,2.049872\H,0,-0.325577,-2.921687,2.656063\H,0,0.21996,-0
 .738268,1.715029\\Version=ES64L-G16RevB.01\HF=-1000.6372687\RMSD=6.961
 e-09\Dipole=0.0000081,-0.0135985,0.0000026\Quadrupole=4.2549916,5.2785
 892,-9.5335808,-0.0000178,6.2015831,-0.0004716\PG=C01 [X(C26H16)]\\@


 Cherishing children is the mark of a civilized society.
 -- Joan Ganz Cooney
 Job cpu time:       0 days  0 hours 11 minutes  4.1 seconds.
 Elapsed time:       0 days  0 hours  0 minutes 37.2 seconds.
 File lengths (MBytes):  RWF=    149 Int=      0 D2E=      0 Chk=     17 Scr=      1
 Normal termination of Gaussian 16 at Tue Jun 10 19:31:28 2025.
