 Entering Gaussian System, Link 0=g16
 Initial command:
 /opt/software/g16/l1.exe "/tmp/6x1_m1_CNB_sgp-22015.tmp/Gau-74817.inp" -scrdir="/tmp/6x1_m1_CNB_sgp-22015.tmp/"
 Entering Link 1 = /opt/software/g16/l1.exe PID=     74818.
  
 Copyright (c) 1988-2017, Gaussian, Inc.  All Rights Reserved.
  
 This is part of the Gaussian(R) 16 program.  It is based on
 the Gaussian(R) 09 system (copyright 2009, Gaussian, Inc.),
 the Gaussian(R) 03 system (copyright 2003, Gaussian, Inc.),
 the Gaussian(R) 98 system (copyright 1998, Gaussian, Inc.),
 the Gaussian(R) 94 system (copyright 1995, Gaussian, Inc.),
 the Gaussian 92(TM) system (copyright 1992, Gaussian, Inc.),
 the Gaussian 90(TM) system (copyright 1990, Gaussian, Inc.),
 the Gaussian 88(TM) system (copyright 1988, Gaussian, Inc.),
 the Gaussian 86(TM) system (copyright 1986, Carnegie Mellon
 University), and the Gaussian 82(TM) system (copyright 1983,
 Carnegie Mellon University). Gaussian is a federally registered
 trademark of Gaussian, Inc.
  
 This software contains proprietary and confidential information,
 including trade secrets, belonging to Gaussian, Inc.
  
 This software is provided under written license and may be
 used, copied, transmitted, or stored only in accord with that
 written license.
  
 The following legend is applicable only to US Government
 contracts under FAR:
  
                    RESTRICTED RIGHTS LEGEND
  
 Use, reproduction and disclosure by the US Government is
 subject to restrictions as set forth in subparagraphs (a)
 and (c) of the Commercial Computer Software - Restricted
 Rights clause in FAR 52.227-19.
  
 Gaussian, Inc.
 340 Quinnipiac St., Bldg. 40, Wallingford CT 06492
  
  
 ---------------------------------------------------------------
 Warning -- This program may not be used in any manner that
 competes with the business of Gaussian, Inc. or will provide
 assistance to any competitor of Gaussian, Inc.  The licensee
 of this program is prohibited from giving any competitor of
 Gaussian, Inc. access to this program.  By using this program,
 the user acknowledges that Gaussian, Inc. is engaged in the
 business of creating and licensing software in the field of
 computational chemistry and represents and warrants to the
 licensee that it is not a competitor of Gaussian, Inc. and that
 it will not use this program in any manner prohibited above.
 ---------------------------------------------------------------
  

 Cite this work as:
 Gaussian 16, Revision B.01,
 M. J. Frisch, G. W. Trucks, H. B. Schlegel, G. E. Scuseria, 
 M. A. Robb, J. R. Cheeseman, G. Scalmani, V. Barone, 
 G. A. Petersson, H. Nakatsuji, X. Li, M. Caricato, A. V. Marenich, 
 J. Bloino, B. G. Janesko, R. Gomperts, B. Mennucci, H. P. Hratchian, 
 J. V. Ortiz, A. F. Izmaylov, J. L. Sonnenberg, D. Williams-Young, 
 F. Ding, F. Lipparini, F. Egidi, J. Goings, B. Peng, A. Petrone, 
 T. Henderson, D. Ranasinghe, V. G. Zakrzewski, J. Gao, N. Rega, 
 G. Zheng, W. Liang, M. Hada, M. Ehara, K. Toyota, R. Fukuda, 
 J. Hasegawa, M. Ishida, T. Nakajima, Y. Honda, O. Kitao, H. Nakai, 
 T. Vreven, K. Throssell, J. A. Montgomery, Jr., J. E. Peralta, 
 F. Ogliaro, M. J. Bearpark, J. J. Heyd, E. N. Brothers, K. N. Kudin, 
 V. N. Staroverov, T. A. Keith, R. Kobayashi, J. Normand, 
 K. Raghavachari, A. P. Rendell, J. C. Burant, S. S. Iyengar, 
 J. Tomasi, M. Cossi, J. M. Millam, M. Klene, C. Adamo, R. Cammi, 
 J. W. Ochterski, R. L. Martin, K. Morokuma, O. Farkas, 
 J. B. Foresman, and D. J. Fox, Gaussian, Inc., Wallingford CT, 2016.
 
 ******************************************
 Gaussian 16:  ES64L-G16RevB.01 20-Dec-2017
                 4-Jun-2025 
 ******************************************
 %nproc=32
 Will use up to   32 processors via shared memory.
 ------------------------------------
 # B3LYP/6-311G* Pop=Hirshfeld NOSYMM
 ------------------------------------
 1/38=1,172=1/1;
 2/12=2,15=1,17=6,18=5,40=1/2;
 3/5=4,6=6,7=1,11=2,25=1,30=1,74=-5/1,2,3;
 4//1;
 5/5=2,38=5/2;
 6/7=2,8=2,9=2,10=2,28=1,79=1/1;
 99/5=1,9=1/99;
 -----------------------------
 From ../../6x1_m1_CNB_opt.out
 -----------------------------
 Symbolic Z-matrix:
 Charge =  0 Multiplicity = 1
 6                     3.53463  -1.14817  -1.7623 
 6                     3.48053  -1.13059  -0.34836 
 6                     3.67642   1.25688  -1.85487 
 6                     3.83765   0.04917  -2.47266 
 6                     3.39455   1.33593  -0.45423 
 6                     3.6448    0.16024   0.31967 
 6                     3.87061   0.34731   1.72016 
 6                     3.52604   1.51601   2.33799 
 6                     2.71932   2.44818   0.21384 
 6                     2.7616    2.48616   1.62779 
 6                     1.87613   3.34715   2.33817 
 6                     0.74963   3.81144   1.72039 
 6                     1.68342   3.23564  -0.45416 
 6                     0.54013   3.60677   0.31976 
 6                     0.44986   3.8105   -2.4725 
 6                     1.63427   3.52454  -1.85469 
 6                    -0.77252   3.63376  -1.76224 
 6                    -0.76075   3.57826  -0.34828 
 6                    -2.92658   2.55466  -1.85488 
 6                    -1.96094   3.29771  -2.47264 
 6                    -2.85429   2.27111  -0.45423 
 6                    -1.96086   3.07524   0.3197 
 6                    -2.23562   3.17717   1.72023 
 6                    -3.07596   2.29486   2.33802 
 6                    -3.48056   1.13054   0.21378 
 6                    -3.53464   1.14811   1.62773 
 6                    -3.83781  -0.04922   2.33807 
 6                    -3.67661  -1.25692   1.72028 
 6                    -3.64493  -0.16027  -0.45425 
 6                    -3.39466  -1.33596   0.31964 
 6                    -3.52621  -1.51606  -2.47257 
 6                    -3.87083  -0.34738  -1.85473 
 6                    -2.76162  -2.48613  -1.76237 
 6                    -2.71933  -2.44815  -0.34843 
 6                    -0.74955  -3.81126  -1.85498 
 6                    -1.87606  -3.34699  -2.47276 
 6                    -0.54009  -3.60667  -0.45434 
 6                    -1.68339  -3.23552   0.31958 
 6                    -1.63423  -3.52429   1.72012 
 6                    -0.44984  -3.81029   2.33795 
 6                     0.76078  -3.57826   0.21371 
 6                     0.77255  -3.63374   1.62767 
 6                     1.96103  -3.29782   2.33807 
 6                     2.92668  -2.55481   1.7203 
 6                     1.96095  -3.07534  -0.45427 
 6                     2.85436  -2.2712    0.31966 
 6                     3.07611  -2.295    -2.47257 
 6                     2.2358   -3.17734  -1.85479 
 1                     3.78533   2.16024  -2.437 
 1                     4.03867  -0.00153  -3.53978 
 1                     4.33823  -0.43328   2.30222 
 1                     3.68921   1.64419   3.40508 
 1                     2.0206    3.49591   3.40528 
 1                     0.02197   4.35769   2.30253 
 1                     0.4204    4.01583  -3.53961 
 1                     2.54406   3.5393   -2.43679 
 1                    -3.7634    2.19754  -2.43708 
 1                    -2.01736   3.49704  -3.5398 
 1                    -1.79296   3.97207   2.30242 
 1                    -3.26837   2.37204   3.40515 
 1                    -4.03892   0.0015    3.40518 
 1                    -3.7857   -2.1603    2.30234 
 1                    -3.68947  -1.64431  -3.53963 
 1                    -4.33866   0.43314  -2.43673 
 1                    -0.02182  -4.35734  -2.43717 
 1                    -2.02046  -3.49568  -3.53989 
 1                    -2.54399  -3.53881   2.30229 
 1                    -0.4204   -4.01548   3.40508 
 1                     2.01748  -3.49725   3.4052 
 1                     3.76362  -2.19784   2.30245 
 1                     3.26863  -2.37224  -3.53968 
 1                     1.79331  -3.97238  -2.43691 
 
 Symmetry turned off by external request.
 Stoichiometry    C48H24
 Framework group  C1[X(C48H24)]
 Deg. of freedom   210
 Full point group                 C1      NOp   1
                          Input orientation:                          
 ---------------------------------------------------------------------
 Center     Atomic      Atomic             Coordinates (Angstroms)
 Number     Number       Type             X           Y           Z
 ---------------------------------------------------------------------
      1          6           0        3.534627   -1.148165   -1.762300
      2          6           0        3.480533   -1.130586   -0.348358
      3          6           0        3.676424    1.256882   -1.854868
      4          6           0        3.837652    0.049174   -2.472659
      5          6           0        3.394548    1.335933   -0.454229
      6          6           0        3.644802    0.160240    0.319666
      7          6           0        3.870608    0.347306    1.720156
      8          6           0        3.526036    1.516005    2.337994
      9          6           0        2.719315    2.448183    0.213837
     10          6           0        2.761598    2.486159    1.627785
     11          6           0        1.876133    3.347146    2.338165
     12          6           0        0.749631    3.811436    1.720394
     13          6           0        1.683418    3.235643   -0.454162
     14          6           0        0.540127    3.606769    0.319761
     15          6           0        0.449862    3.810504   -2.472502
     16          6           0        1.634265    3.524539   -1.854690
     17          6           0       -0.772517    3.633762   -1.762242
     18          6           0       -0.760746    3.578260   -0.348275
     19          6           0       -2.926576    2.554657   -1.854875
     20          6           0       -1.960943    3.297705   -2.472643
     21          6           0       -2.854290    2.271113   -0.454229
     22          6           0       -1.960862    3.075241    0.319703
     23          6           0       -2.235619    3.177166    1.720233
     24          6           0       -3.075963    2.294860    2.338019
     25          6           0       -3.480559    1.130544    0.213784
     26          6           0       -3.534636    1.148111    1.627725
     27          6           0       -3.837806   -0.049215    2.338071
     28          6           0       -3.676610   -1.256917    1.720276
     29          6           0       -3.644925   -0.160272   -0.454248
     30          6           0       -3.394656   -1.335957    0.319640
     31          6           0       -3.526207   -1.516063   -2.472567
     32          6           0       -3.870828   -0.347383   -1.854728
     33          6           0       -2.761621   -2.486127   -1.762374
     34          6           0       -2.719334   -2.448146   -0.348425
     35          6           0       -0.749548   -3.811262   -1.854978
     36          6           0       -1.876063   -3.346993   -2.472758
     37          6           0       -0.540092   -3.606671   -0.454340
     38          6           0       -1.683387   -3.235521    0.319580
     39          6           0       -1.634232   -3.524285    1.720123
     40          6           0       -0.449841   -3.810294    2.337946
     41          6           0        0.760783   -3.578264    0.213705
     42          6           0        0.772546   -3.633742    1.627672
     43          6           0        1.961031   -3.297822    2.338066
     44          6           0        2.926680   -2.554807    1.720299
     45          6           0        1.960946   -3.075338   -0.454271
     46          6           0        2.854355   -2.271199    0.319655
     47          6           0        3.076112   -2.295002   -2.472574
     48          6           0        2.235802   -3.177335   -1.854789
     49          1           0        3.785334    2.160235   -2.437002
     50          1           0        4.038674   -0.001527   -3.539783
     51          1           0        4.338229   -0.433283    2.302222
     52          1           0        3.689209    1.644189    3.405084
     53          1           0        2.020600    3.495913    3.405278
     54          1           0        0.021973    4.357692    2.302533
     55          1           0        0.420400    4.015825   -3.539606
     56          1           0        2.544060    3.539296   -2.436792
     57          1           0       -3.763396    2.197543   -2.437083
     58          1           0       -2.017360    3.497042   -3.539797
     59          1           0       -1.792955    3.972066    2.302420
     60          1           0       -3.268369    2.372044    3.405146
     61          1           0       -4.038920    0.001500    3.405177
     62          1           0       -3.785699   -2.160301    2.302344
     63          1           0       -3.689471   -1.644312   -3.539634
     64          1           0       -4.338656    0.433137   -2.436729
     65          1           0       -0.021817   -4.357344   -2.437174
     66          1           0       -2.020458   -3.495684   -3.539892
     67          1           0       -2.543987   -3.538807    2.302285
     68          1           0       -0.420395   -4.015483    3.405075
     69          1           0        2.017475   -3.497245    3.405202
     70          1           0        3.763615   -2.197841    2.302447
     71          1           0        3.268631   -2.372241   -3.539677
     72          1           0        1.793307   -3.972383   -2.436910
 ---------------------------------------------------------------------
 Rotational constants (GHZ):           0.0837092           0.0836739           0.0587993
 Standard basis: 6-311G(d) (5D, 7F)
   936 basis functions,  1656 primitive gaussians,   984 cartesian basis functions
   156 alpha electrons      156 beta electrons
       nuclear repulsion energy      5619.9451583406 Hartrees.
 NAtoms=   72 NActive=   72 NUniq=   72 SFac= 1.00D+00 NAtFMM=   60 NAOKFM=T Big=T
 Integral buffers will be    131072 words long.
 Raffenetti 2 integral format.
 Two-electron integral symmetry is turned off.
 One-electron integrals computed using PRISM.
 NBasis=   936 RedAO= T EigKep=  5.93D-05  NBF=   936
 NBsUse=   936 1.00D-06 EigRej= -1.00D+00 NBFU=   936
 ExpMin= 1.03D-01 ExpMax= 4.56D+03 ExpMxC= 6.82D+02 IAcc=3 IRadAn=         5 AccDes= 0.00D+00
 Harris functional with IExCor=  402 and IRadAn=       5 diagonalized for initial guess.
 HarFok:  IExCor=  402 AccDes= 0.00D+00 IRadAn=         5 IDoV= 1 UseB2=F ITyADJ=14
 ICtDFT=  3500011 ScaDFX=  1.000000  1.000000  1.000000  1.000000
 FoFCou: FMM=F IPFlag=           0 FMFlag=      100000 FMFlg1=        2001
         NFxFlg=           0 DoJE=T BraDBF=F KetDBF=T FulRan=T
         wScrn=  0.000000 ICntrl=       500 IOpCl=  0 I1Cent=   200000004 NGrid=           0
         NMat0=    1 NMatS0=      1 NMatT0=    0 NMatD0=    1 NMtDS0=    0 NMtDT0=    0
 Symmetry not used in FoFCou.
 Requested convergence on RMS density matrix=1.00D-08 within 128 cycles.
 Requested convergence on MAX density matrix=1.00D-06.
 Requested convergence on             energy=1.00D-06.
 No special actions if energy rises.
 Integral accuracy reduced to 1.0D-05 until final iterations.
 Initial convergence to 1.0D-05 achieved.  Increase integral accuracy.
 SCF Done:  E(RB3LYP) =  -1843.84287488     A.U. after   14 cycles
            NFock= 14  Conv=0.62D-08     -V/T= 2.0044

 **********************************************************************

            Population analysis using the SCF Density.

 **********************************************************************

 Alpha  occ. eigenvalues --  -10.19641 -10.19640 -10.19640 -10.19639 -10.19638
 Alpha  occ. eigenvalues --  -10.19638 -10.19588 -10.19586 -10.19585 -10.19580
 Alpha  occ. eigenvalues --  -10.19580 -10.19577 -10.19546 -10.19543 -10.19543
 Alpha  occ. eigenvalues --  -10.19540 -10.19539 -10.19538 -10.18441 -10.18441
 Alpha  occ. eigenvalues --  -10.18441 -10.18441 -10.18440 -10.18440 -10.17882
 Alpha  occ. eigenvalues --  -10.17882 -10.17882 -10.17882 -10.17881 -10.17881
 Alpha  occ. eigenvalues --  -10.17879 -10.17879 -10.17879 -10.17879 -10.17878
 Alpha  occ. eigenvalues --  -10.17878 -10.17714 -10.17713 -10.17713 -10.17713
 Alpha  occ. eigenvalues --  -10.17713 -10.17713 -10.17712 -10.17712 -10.17712
 Alpha  occ. eigenvalues --  -10.17712 -10.17712 -10.17712  -0.90260  -0.89510
 Alpha  occ. eigenvalues --   -0.89509  -0.87421  -0.87421  -0.85235  -0.84049
 Alpha  occ. eigenvalues --   -0.82720  -0.82720  -0.80798  -0.80798  -0.79136
 Alpha  occ. eigenvalues --   -0.78778  -0.77533  -0.76707  -0.76706  -0.75388
 Alpha  occ. eigenvalues --   -0.75388  -0.72675  -0.72674  -0.72510  -0.72510
 Alpha  occ. eigenvalues --   -0.71512  -0.70608  -0.65926  -0.64305  -0.64305
 Alpha  occ. eigenvalues --   -0.63488  -0.63473  -0.63473  -0.62295  -0.62295
 Alpha  occ. eigenvalues --   -0.60562  -0.59728  -0.59728  -0.57692  -0.57126
 Alpha  occ. eigenvalues --   -0.56457  -0.56456  -0.53947  -0.53799  -0.53798
 Alpha  occ. eigenvalues --   -0.53039  -0.50656  -0.50656  -0.50367  -0.50367
 Alpha  occ. eigenvalues --   -0.49710  -0.48836  -0.48142  -0.48049  -0.48048
 Alpha  occ. eigenvalues --   -0.46258  -0.46258  -0.46223  -0.46222  -0.45918
 Alpha  occ. eigenvalues --   -0.43962  -0.43610  -0.43610  -0.43428  -0.42935
 Alpha  occ. eigenvalues --   -0.42935  -0.42802  -0.42801  -0.41763  -0.41763
 Alpha  occ. eigenvalues --   -0.41755  -0.41270  -0.41093  -0.41092  -0.40528
 Alpha  occ. eigenvalues --   -0.40328  -0.39567  -0.39566  -0.39514  -0.39514
 Alpha  occ. eigenvalues --   -0.38850  -0.37531  -0.37531  -0.36743  -0.35571
 Alpha  occ. eigenvalues --   -0.34819  -0.34819  -0.34293  -0.34162  -0.34161
 Alpha  occ. eigenvalues --   -0.33081  -0.33080  -0.32636  -0.32635  -0.32462
 Alpha  occ. eigenvalues --   -0.30797  -0.30796  -0.30518  -0.29561  -0.28000
 Alpha  occ. eigenvalues --   -0.27678  -0.26096  -0.26095  -0.25028  -0.25028
 Alpha  occ. eigenvalues --   -0.21850  -0.21849  -0.21444  -0.21443  -0.20636
 Alpha  occ. eigenvalues --   -0.18965
 Alpha virt. eigenvalues --   -0.08275  -0.05852  -0.05348  -0.05348  -0.04920
 Alpha virt. eigenvalues --   -0.04918  -0.02991  -0.02988  -0.02960   0.01516
 Alpha virt. eigenvalues --    0.01516   0.03527   0.03738   0.03739   0.04186
 Alpha virt. eigenvalues --    0.04493   0.04915   0.04954   0.04955   0.05634
 Alpha virt. eigenvalues --    0.05635   0.05866   0.05867   0.07223   0.07224
 Alpha virt. eigenvalues --    0.07719   0.07720   0.08501   0.08679   0.09126
 Alpha virt. eigenvalues --    0.10335   0.10945   0.11935   0.12058   0.12059
 Alpha virt. eigenvalues --    0.12277   0.12523   0.12524   0.14324   0.14328
 Alpha virt. eigenvalues --    0.14565   0.14567   0.17763   0.17764   0.18258
 Alpha virt. eigenvalues --    0.18259   0.18615   0.20380   0.20559   0.21168
 Alpha virt. eigenvalues --    0.21776   0.21777   0.22381   0.22383   0.23564
 Alpha virt. eigenvalues --    0.24348   0.24348   0.24773   0.24774   0.25326
 Alpha virt. eigenvalues --    0.25335   0.25958   0.25959   0.26214   0.26395
 Alpha virt. eigenvalues --    0.26395   0.26406   0.28339   0.28340   0.28972
 Alpha virt. eigenvalues --    0.28973   0.29766   0.29767   0.30925   0.30935
 Alpha virt. eigenvalues --    0.31348   0.31349   0.32258   0.32260   0.33065
 Alpha virt. eigenvalues --    0.33325   0.33631   0.33632   0.34270   0.34271
 Alpha virt. eigenvalues --    0.34650   0.34679   0.34679   0.35486   0.35983
 Alpha virt. eigenvalues --    0.36238   0.36241   0.36653   0.36655   0.36875
 Alpha virt. eigenvalues --    0.37676   0.37677   0.37774   0.38364   0.38365
 Alpha virt. eigenvalues --    0.38768   0.39394   0.39435   0.39436   0.39457
 Alpha virt. eigenvalues --    0.39902   0.39902   0.40827   0.41446   0.41824
 Alpha virt. eigenvalues --    0.42011   0.42025   0.42025   0.42460   0.42613
 Alpha virt. eigenvalues --    0.42613   0.42681   0.42682   0.43190   0.43190
 Alpha virt. eigenvalues --    0.43408   0.43409   0.43417   0.43418   0.43576
 Alpha virt. eigenvalues --    0.43859   0.44393   0.44394   0.45737   0.45738
 Alpha virt. eigenvalues --    0.45761   0.46068   0.46200   0.46201   0.46613
 Alpha virt. eigenvalues --    0.46998   0.46999   0.47014   0.47090   0.47091
 Alpha virt. eigenvalues --    0.47421   0.47423   0.48024   0.48256   0.48258
 Alpha virt. eigenvalues --    0.48629   0.48993   0.48995   0.49174   0.49292
 Alpha virt. eigenvalues --    0.49815   0.49817   0.49872   0.50581   0.50584
 Alpha virt. eigenvalues --    0.50814   0.51736   0.52237   0.53091   0.54315
 Alpha virt. eigenvalues --    0.54317   0.54354   0.54576   0.54577   0.55111
 Alpha virt. eigenvalues --    0.55113   0.55380   0.55518   0.55518   0.55521
 Alpha virt. eigenvalues --    0.56871   0.56872   0.57014   0.57016   0.57576
 Alpha virt. eigenvalues --    0.57967   0.57970   0.58122   0.58831   0.58833
 Alpha virt. eigenvalues --    0.59476   0.60412   0.61168   0.61169   0.61321
 Alpha virt. eigenvalues --    0.61618   0.61619   0.63357   0.63359   0.63760
 Alpha virt. eigenvalues --    0.63762   0.64168   0.64290   0.64290   0.64343
 Alpha virt. eigenvalues --    0.64746   0.64750   0.64751   0.65454   0.65454
 Alpha virt. eigenvalues --    0.66853   0.66855   0.66863   0.66865   0.66962
 Alpha virt. eigenvalues --    0.67139   0.67139   0.67319   0.67323   0.67515
 Alpha virt. eigenvalues --    0.67691   0.69343   0.69487   0.71012   0.71014
 Alpha virt. eigenvalues --    0.71547   0.71656   0.71801   0.71805   0.72674
 Alpha virt. eigenvalues --    0.73880   0.73882   0.74885   0.74890   0.74892
 Alpha virt. eigenvalues --    0.74930   0.74932   0.75901   0.75903   0.76080
 Alpha virt. eigenvalues --    0.76711   0.77488   0.77817   0.77819   0.78504
 Alpha virt. eigenvalues --    0.78505   0.78662   0.78669   0.79040   0.79140
 Alpha virt. eigenvalues --    0.79323   0.81412   0.81413   0.81565   0.81567
 Alpha virt. eigenvalues --    0.82683   0.82833   0.83261   0.84227   0.84228
 Alpha virt. eigenvalues --    0.84303   0.84304   0.84989   0.84992   0.85373
 Alpha virt. eigenvalues --    0.85836   0.85837   0.86148   0.86152   0.86256
 Alpha virt. eigenvalues --    0.88196   0.88198   0.88343   0.88346   0.89376
 Alpha virt. eigenvalues --    0.89781   0.90190   0.90191   0.90769   0.91225
 Alpha virt. eigenvalues --    0.91227   0.92164   0.92679   0.92683   0.93219
 Alpha virt. eigenvalues --    0.93220   0.93427   0.93857   0.93864   0.94077
 Alpha virt. eigenvalues --    0.95528   0.95532   0.95939   0.95942   0.96065
 Alpha virt. eigenvalues --    0.96554   0.96574   0.96577   0.97370   0.98349
 Alpha virt. eigenvalues --    0.98353   0.98471   0.99658   0.99841   1.01764
 Alpha virt. eigenvalues --    1.01766   1.02030   1.03107   1.04030   1.05203
 Alpha virt. eigenvalues --    1.05206   1.08307   1.09202   1.09204   1.09835
 Alpha virt. eigenvalues --    1.09838   1.10900   1.12129   1.12149   1.12157
 Alpha virt. eigenvalues --    1.13050   1.13250   1.13256   1.13852   1.14277
 Alpha virt. eigenvalues --    1.14278   1.14541   1.14550   1.15919   1.15925
 Alpha virt. eigenvalues --    1.16126   1.16752   1.16757   1.17683   1.18638
 Alpha virt. eigenvalues --    1.18643   1.19048   1.19424   1.19591   1.19595
 Alpha virt. eigenvalues --    1.21341   1.24319   1.24323   1.25403   1.25584
 Alpha virt. eigenvalues --    1.25589   1.27329   1.27755   1.27759   1.28197
 Alpha virt. eigenvalues --    1.28200   1.28548   1.29574   1.31303   1.31310
 Alpha virt. eigenvalues --    1.32180   1.32183   1.32535   1.32536   1.33160
 Alpha virt. eigenvalues --    1.34563   1.34793   1.34797   1.35848   1.36582
 Alpha virt. eigenvalues --    1.36585   1.36699   1.36895   1.39010   1.40849
 Alpha virt. eigenvalues --    1.40854   1.41107   1.41108   1.41652   1.41657
 Alpha virt. eigenvalues --    1.43278   1.43663   1.43760   1.43762   1.44095
 Alpha virt. eigenvalues --    1.44097   1.45590   1.46267   1.46882   1.46885
 Alpha virt. eigenvalues --    1.48048   1.48455   1.48642   1.48645   1.49677
 Alpha virt. eigenvalues --    1.49820   1.49820   1.50412   1.50412   1.50901
 Alpha virt. eigenvalues --    1.50902   1.50951   1.50952   1.51414   1.52318
 Alpha virt. eigenvalues --    1.53435   1.53788   1.54715   1.54718   1.54863
 Alpha virt. eigenvalues --    1.54866   1.56231   1.56232   1.57353   1.57597
 Alpha virt. eigenvalues --    1.60043   1.60676   1.60678   1.62637   1.62638
 Alpha virt. eigenvalues --    1.62807   1.63542   1.63543   1.64235   1.64239
 Alpha virt. eigenvalues --    1.64892   1.65035   1.66777   1.66781   1.67586
 Alpha virt. eigenvalues --    1.67588   1.68744   1.68749   1.69427   1.72534
 Alpha virt. eigenvalues --    1.72801   1.72803   1.73959   1.73961   1.74145
 Alpha virt. eigenvalues --    1.76196   1.76423   1.76426   1.76752   1.76753
 Alpha virt. eigenvalues --    1.77939   1.77942   1.79369   1.79406   1.80049
 Alpha virt. eigenvalues --    1.81412   1.81413   1.81643   1.81644   1.82248
 Alpha virt. eigenvalues --    1.83283   1.83284   1.83597   1.83651   1.84926
 Alpha virt. eigenvalues --    1.84927   1.85360   1.86706   1.86775   1.87136
 Alpha virt. eigenvalues --    1.87137   1.88385   1.88387   1.90799   1.91198
 Alpha virt. eigenvalues --    1.91203   1.91996   1.92995   1.92999   1.94108
 Alpha virt. eigenvalues --    1.94112   1.94114   1.94687   1.94689   1.95752
 Alpha virt. eigenvalues --    1.96054   1.96226   1.96228   1.96770   1.96771
 Alpha virt. eigenvalues --    1.96790   1.96792   1.97053   2.00337   2.00707
 Alpha virt. eigenvalues --    2.01185   2.01187   2.01255   2.02374   2.02375
 Alpha virt. eigenvalues --    2.03229   2.04743   2.04744   2.06618   2.08089
 Alpha virt. eigenvalues --    2.08091   2.08516   2.08517   2.08564   2.09362
 Alpha virt. eigenvalues --    2.10531   2.10534   2.11793   2.11795   2.12610
 Alpha virt. eigenvalues --    2.12614   2.12651   2.12808   2.15627   2.16323
 Alpha virt. eigenvalues --    2.16325   2.16732   2.16990   2.16991   2.20059
 Alpha virt. eigenvalues --    2.20061   2.21572   2.22231   2.22232   2.22894
 Alpha virt. eigenvalues --    2.23523   2.23524   2.24771   2.25341   2.25649
 Alpha virt. eigenvalues --    2.25653   2.28850   2.29054   2.30928   2.30933
 Alpha virt. eigenvalues --    2.32500   2.32582   2.32586   2.33470   2.33473
 Alpha virt. eigenvalues --    2.34909   2.34909   2.35992   2.35995   2.37133
 Alpha virt. eigenvalues --    2.39164   2.39177   2.39185   2.39323   2.39325
 Alpha virt. eigenvalues --    2.40029   2.40032   2.41494   2.41933   2.41939
 Alpha virt. eigenvalues --    2.42005   2.42008   2.43945   2.44837   2.44839
 Alpha virt. eigenvalues --    2.45339   2.45342   2.45747   2.47043   2.49631
 Alpha virt. eigenvalues --    2.49835   2.49836   2.51341   2.52332   2.54175
 Alpha virt. eigenvalues --    2.54233   2.54236   2.54362   2.54364   2.54736
 Alpha virt. eigenvalues --    2.54737   2.59316   2.59319   2.59889   2.61562
 Alpha virt. eigenvalues --    2.63421   2.64013   2.64015   2.64828   2.64834
 Alpha virt. eigenvalues --    2.64835   2.65451   2.65452   2.67149   2.67151
 Alpha virt. eigenvalues --    2.68355   2.68358   2.69074   2.69121   2.69594
 Alpha virt. eigenvalues --    2.70495   2.70499   2.72475   2.72477   2.73597
 Alpha virt. eigenvalues --    2.73598   2.75617   2.79365   2.79368   2.79783
 Alpha virt. eigenvalues --    2.79965   2.80970   2.83609   2.83611   2.84796
 Alpha virt. eigenvalues --    2.85995   2.86702   2.86704   2.88433   2.88437
 Alpha virt. eigenvalues --    2.89084   2.89434   2.89434   2.91610   2.91614
 Alpha virt. eigenvalues --    2.96268   2.96916   2.96924   2.97544   2.97545
 Alpha virt. eigenvalues --    2.98444   2.99377   3.02684   3.02688   3.02930
 Alpha virt. eigenvalues --    3.02931   3.03816   3.04439   3.07670   3.07988
 Alpha virt. eigenvalues --    3.07991   3.09028   3.10150   3.10156   3.13090
 Alpha virt. eigenvalues --    3.13092   3.13539   3.14031   3.14033   3.14133
 Alpha virt. eigenvalues --    3.15564   3.16016   3.16022   3.17976   3.17977
 Alpha virt. eigenvalues --    3.17996   3.18159   3.18161   3.19302   3.19302
 Alpha virt. eigenvalues --    3.21170   3.22061   3.23141   3.23218   3.25723
 Alpha virt. eigenvalues --    3.26047   3.26049   3.26451   3.26455   3.27099
 Alpha virt. eigenvalues --    3.27102   3.27545   3.27563   3.27564   3.30298
 Alpha virt. eigenvalues --    3.30298   3.30371   3.30415   3.30851   3.30852
 Alpha virt. eigenvalues --    3.33381   3.33382   3.33796   3.33841   3.34044
 Alpha virt. eigenvalues --    3.34046   3.34716   3.34944   3.34948   3.36434
 Alpha virt. eigenvalues --    3.36436   3.37218   3.39525   3.39527   3.40947
 Alpha virt. eigenvalues --    3.40948   3.42100   3.45319   3.45322   3.45867
 Alpha virt. eigenvalues --    3.46424   3.46428   3.50468   3.50701   3.54141
 Alpha virt. eigenvalues --    3.54144   3.54310   3.55360   3.56769   3.56772
 Alpha virt. eigenvalues --    3.59492   3.59495   3.60546   3.63952   3.63954
 Alpha virt. eigenvalues --    3.68341   3.74817   3.77971   3.77975   3.79039
 Alpha virt. eigenvalues --    3.80962   3.80963   3.82856   3.82857   3.84814
 Alpha virt. eigenvalues --    3.87189   3.88654   3.88657   4.08378   4.08382
 Alpha virt. eigenvalues --    4.08465   4.08468   4.08760   4.16106   4.21937
 Alpha virt. eigenvalues --    4.32446   4.32451   4.40171   4.40191   4.42246
 Alpha virt. eigenvalues --    4.59569   4.59578   4.59754   4.59765   4.63411
 Alpha virt. eigenvalues --    4.63737   4.71237   4.72708   4.73499   4.73502
 Alpha virt. eigenvalues --    4.74523   4.74527  23.11639  23.21600  23.21602
 Alpha virt. eigenvalues --   23.40164  23.40166  23.49657  23.56608  23.58712
 Alpha virt. eigenvalues --   23.58714  23.64219  23.64221  23.67481  23.81424
 Alpha virt. eigenvalues --   23.82243  23.82759  23.82761  23.82831  23.82832
 Alpha virt. eigenvalues --   23.89318  23.89350  23.89351  23.90893  23.90899
 Alpha virt. eigenvalues --   23.92771  23.92869  23.94800  23.94803  23.97623
 Alpha virt. eigenvalues --   23.97629  23.98349  24.00599  24.01073  24.01075
 Alpha virt. eigenvalues --   24.01144  24.01315  24.01316  24.10917  24.10922
 Alpha virt. eigenvalues --   24.10927  24.11332  24.11336  24.11832  24.13845
 Alpha virt. eigenvalues --   24.13858  24.13860  24.13981  24.13983  24.14015
          Condensed to atoms (all electrons):
 Mulliken charges:
               1
     1  C    0.069579
     2  C   -0.071980
     3  C   -0.212961
     4  C   -0.222026
     5  C    0.040814
     6  C    0.040931
     7  C   -0.213128
     8  C   -0.221989
     9  C   -0.072007
    10  C    0.069548
    11  C   -0.222021
    12  C   -0.213000
    13  C    0.041028
    14  C    0.040882
    15  C   -0.222020
    16  C   -0.213083
    17  C    0.069542
    18  C   -0.071997
    19  C   -0.212877
    20  C   -0.222040
    21  C    0.040881
    22  C    0.040938
    23  C   -0.213000
    24  C   -0.222046
    25  C   -0.071977
    26  C    0.069579
    27  C   -0.222015
    28  C   -0.213023
    29  C    0.040936
    30  C    0.040823
    31  C   -0.221975
    32  C   -0.213189
    33  C    0.069551
    34  C   -0.072013
    35  C   -0.212938
    36  C   -0.222034
    37  C    0.040874
    38  C    0.041025
    39  C   -0.213019
    40  C   -0.222036
    41  C   -0.071993
    42  C    0.069541
    43  C   -0.222027
    44  C   -0.212939
    45  C    0.040943
    46  C    0.040891
    47  C   -0.222032
    48  C   -0.213063
    49  H    0.206032
    50  H    0.189279
    51  H    0.206103
    52  H    0.189281
    53  H    0.189275
    54  H    0.206075
    55  H    0.189277
    56  H    0.206111
    57  H    0.205985
    58  H    0.189276
    59  H    0.206065
    60  H    0.189273
    61  H    0.189282
    62  H    0.206069
    63  H    0.189285
    64  H    0.206138
    65  H    0.206039
    66  H    0.189271
    67  H    0.206075
    68  H    0.189273
    69  H    0.189279
    70  H    0.206020
    71  H    0.189276
    72  H    0.206101
 Sum of Mulliken charges =  -0.00000
 Mulliken charges with hydrogens summed into heavy atoms:
               1
     1  C    0.069579
     2  C   -0.071980
     3  C   -0.006929
     4  C   -0.032746
     5  C    0.040814
     6  C    0.040931
     7  C   -0.007024
     8  C   -0.032708
     9  C   -0.072007
    10  C    0.069548
    11  C   -0.032746
    12  C   -0.006925
    13  C    0.041028
    14  C    0.040882
    15  C   -0.032743
    16  C   -0.006972
    17  C    0.069542
    18  C   -0.071997
    19  C   -0.006892
    20  C   -0.032764
    21  C    0.040881
    22  C    0.040938
    23  C   -0.006934
    24  C   -0.032773
    25  C   -0.071977
    26  C    0.069579
    27  C   -0.032733
    28  C   -0.006954
    29  C    0.040936
    30  C    0.040823
    31  C   -0.032691
    32  C   -0.007051
    33  C    0.069551
    34  C   -0.072013
    35  C   -0.006898
    36  C   -0.032763
    37  C    0.040874
    38  C    0.041025
    39  C   -0.006944
    40  C   -0.032763
    41  C   -0.071993
    42  C    0.069541
    43  C   -0.032748
    44  C   -0.006919
    45  C    0.040943
    46  C    0.040891
    47  C   -0.032755
    48  C   -0.006962
 Electronic spatial extent (au):  <R**2>=          20174.2401
 Charge=             -0.0000 electrons
 Dipole moment (field-independent basis, Debye):
    X=              0.0000    Y=              0.0000    Z=              0.0000  Tot=              0.0000
 Quadrupole moment (field-independent basis, Debye-Ang):
   XX=           -278.3235   YY=           -278.3289   ZZ=           -233.6381
   XY=              0.0030   XZ=              0.0028   YZ=             -0.0010
 Traceless Quadrupole moment (field-independent basis, Debye-Ang):
   XX=            -14.8934   YY=            -14.8987   ZZ=             29.7921
   XY=              0.0030   XZ=              0.0028   YZ=             -0.0010
 Octapole moment (field-independent basis, Debye-Ang**2):
  XXX=             -0.0108  YYY=              0.0094  ZZZ=             47.1638  XYY=              0.0123
  XXY=             -0.0079  XXZ=             18.7260  XZZ=             -0.0001  YZZ=              0.0005
  YYZ=             18.7258  XYZ=              0.0002
 Hexadecapole moment (field-independent basis, Debye-Ang**3):
 XXXX=         -12603.6103 YYYY=         -12596.6091 ZZZZ=          -4638.1264 XXXY=             -0.2258
 XXXZ=             74.8202 YYYX=             -0.1167 YYYZ=            102.4032 ZZZX=              0.0116
 ZZZY=             -0.1469 XXYY=          -4200.0601 XXZZ=          -2511.5323 YYZZ=          -2510.6080
 XXYZ=           -102.7061 YYXZ=            -74.6666 ZZXY=             -0.0273
 N-N= 5.619945158341D+03 E-N=-1.551887665746D+04  KE= 1.835819589950D+03
 There are a total of     1647288 grid points.
 ElSum from          density=      311.9999441607
 ElSum from atomic densities=      311.9996919369
 Hirshfeld populations at iteration   1 (CA, CB, DipXYZ):
               1          2          3          4          5
     1  C    3.005099   3.005099  -0.000918   0.000324  -0.014450
     2  C    3.001036   3.001036   0.005936  -0.001909   0.034653
     3  C    3.023115   3.023115  -0.011449   0.059247   0.005745
     4  C    3.020134   3.020134   0.016196  -0.040268  -0.051151
     5  C    2.997479   2.997479  -0.008783   0.024280  -0.000458
     6  C    2.997472   2.997472   0.001838  -0.025795   0.000442
     7  C    3.023114   3.023114   0.013734  -0.058777  -0.005720
     8  C    3.020136   3.020136  -0.001579   0.043364   0.051143
     9  C    3.001035   3.001035   0.004630   0.004184  -0.034622
    10  C    3.005095   3.005095  -0.000774  -0.000690   0.014441
    11  C    3.020139   3.020139   0.042966  -0.006119   0.051161
    12  C    3.023113   3.023113  -0.057049   0.019726  -0.005745
    13  C    2.997477   2.997477   0.023262  -0.011278  -0.000457
    14  C    2.997481   2.997481  -0.025434   0.004547   0.000470
    15  C    3.020135   3.020135  -0.038355   0.020290  -0.051154
    16  C    3.023112   3.023112   0.057773  -0.017530   0.005717
    17  C    3.005086   3.005086   0.000204  -0.001053  -0.014432
    18  C    3.001032   3.001032  -0.001315   0.006105   0.034614
    19  C    3.023114   3.023114  -0.045600  -0.039509   0.005729
    20  C    3.020131   3.020131   0.026798   0.034120  -0.051150
    21  C    2.997478   2.997478  -0.016628  -0.019746  -0.000443
    22  C    2.997478   2.997478   0.021411   0.014464   0.000442
    23  C    3.023115   3.023115   0.044086   0.041230  -0.005732
    24  C    3.020140   3.020140  -0.036776  -0.023030   0.051149
    25  C    3.001036   3.001036  -0.005937   0.001908  -0.034654
    26  C    3.005099   3.005099   0.000916  -0.000331   0.014451
    27  C    3.020134   3.020134  -0.016198   0.040277   0.051151
    28  C    3.023113   3.023113   0.011452  -0.059256  -0.005749
    29  C    2.997469   2.997469  -0.001842   0.025805  -0.000452
    30  C    2.997478   2.997478   0.008783  -0.024288   0.000469
    31  C    3.020136   3.020136   0.001581  -0.043372  -0.051142
    32  C    3.023113   3.023113  -0.013738   0.058783   0.005723
    33  C    3.005095   3.005095   0.000769   0.000695  -0.014440
    34  C    3.001035   3.001035  -0.004631  -0.004183   0.034619
    35  C    3.023115   3.023115   0.057040  -0.019723   0.005742
    36  C    3.020138   3.020138  -0.042956   0.006117  -0.051161
    37  C    2.997483   2.997483   0.025426  -0.004544  -0.000459
    38  C    2.997480   2.997480  -0.023251   0.011275   0.000447
    39  C    3.023113   3.023113  -0.057764   0.017531  -0.005715
    40  C    3.020135   3.020135   0.038347  -0.020286   0.051156
    41  C    3.001032   3.001032   0.001316  -0.006105  -0.034615
    42  C    3.005086   3.005086  -0.000197   0.001055   0.014433
    43  C    3.020132   3.020132  -0.026805  -0.034126   0.051150
    44  C    3.023113   3.023113   0.045607   0.039516  -0.005734
    45  C    2.997476   2.997476  -0.021418  -0.014472  -0.000452
    46  C    2.997476   2.997476   0.016636   0.019750   0.000454
    47  C    3.020140   3.020140   0.036783   0.023035  -0.051148
    48  C    3.023113   3.023113  -0.044090  -0.041237   0.005735
    49  H    0.478829   0.478829   0.024917   0.113530  -0.086234
    50  H    0.477380   0.477380   0.026777  -0.002483  -0.145492
    51  H    0.478822   0.478822   0.069027  -0.093565   0.086229
    52  H    0.477381   0.477381   0.023480   0.013177   0.145485
    53  H    0.477381   0.477381   0.015547   0.021952   0.145488
    54  H    0.478828   0.478828  -0.085838   0.078382   0.086239
    55  H    0.477381   0.477381   0.000323   0.026908  -0.145483
    56  H    0.478822   0.478822   0.115525   0.013018  -0.086237
    57  H    0.478832   0.478832  -0.110774  -0.035146  -0.086245
    58  H    0.477381   0.477381  -0.011215   0.024416  -0.145490
    59  H    0.478828   0.478828   0.046551   0.106505   0.086245
    60  H    0.477382   0.477382  -0.023120   0.013739   0.145490
    61  H    0.477380   0.477380  -0.026790   0.002486   0.145490
    62  H    0.478827   0.478827  -0.024936  -0.113542   0.086225
    63  H    0.477380   0.477380  -0.023493  -0.013189  -0.145484
    64  H    0.478819   0.478819  -0.069054   0.093567  -0.086219
    65  H    0.478831   0.478831   0.085838  -0.078358  -0.086248
    66  H    0.477381   0.477381  -0.015535  -0.021941  -0.145490
    67  H    0.478825   0.478825  -0.115509  -0.012994   0.086246
    68  H    0.477382   0.477382  -0.000327  -0.026888   0.145486
    69  H    0.477380   0.477380   0.011218  -0.024429   0.145488
    70  H    0.478829   0.478829   0.110794   0.035135   0.086236
    71  H    0.477382   0.477382   0.023138  -0.013745  -0.145488
    72  H    0.478825   0.478825  -0.046539  -0.106530  -0.086235
       Tot 155.999972 155.999972   0.000005   0.000004   0.000001

 Dip from Atomic Chgs              0.000002   0.000004  -0.000007
         Total Dipole              0.000006   0.000009  -0.000006

 Hirshfeld charges, spin densities, dipoles, and CM5 charges using IRadAn=      5:
              Q-H        S-H        Dx         Dy         Dz        Q-CM5   
     1  C   -0.010198   0.000000  -0.000918   0.000324  -0.014450  -0.017110
     2  C   -0.002073   0.000000   0.005936  -0.001909   0.034653  -0.003635
     3  C   -0.046229   0.000000  -0.011449   0.059247   0.005745  -0.099949
     4  C   -0.040268   0.000000   0.016196  -0.040268  -0.051151  -0.093168
     5  C    0.005041   0.000000  -0.008783   0.024280  -0.000458   0.001118
     6  C    0.005057   0.000000   0.001838  -0.025795   0.000442   0.001133
     7  C   -0.046229   0.000000   0.013734  -0.058777  -0.005720  -0.099949
     8  C   -0.040272   0.000000  -0.001579   0.043364   0.051143  -0.093172
     9  C   -0.002070   0.000000   0.004630   0.004184  -0.034622  -0.003633
    10  C   -0.010189   0.000000  -0.000774  -0.000690   0.014441  -0.017101
    11  C   -0.040277   0.000000   0.042966  -0.006119   0.051161  -0.093178
    12  C   -0.046227   0.000000  -0.057049   0.019726  -0.005745  -0.099948
    13  C    0.005046   0.000000   0.023262  -0.011278  -0.000457   0.001123
    14  C    0.005039   0.000000  -0.025434   0.004547   0.000470   0.001116
    15  C   -0.040270   0.000000  -0.038355   0.020290  -0.051154  -0.093170
    16  C   -0.046224   0.000000   0.057773  -0.017530   0.005717  -0.099945
    17  C   -0.010172   0.000000   0.000204  -0.001053  -0.014432  -0.017084
    18  C   -0.002063   0.000000  -0.001315   0.006105   0.034614  -0.003626
    19  C   -0.046229   0.000000  -0.045600  -0.039509   0.005729  -0.099948
    20  C   -0.040263   0.000000   0.026798   0.034120  -0.051150  -0.093163
    21  C    0.005044   0.000000  -0.016628  -0.019746  -0.000443   0.001121
    22  C    0.005043   0.000000   0.021411   0.014464   0.000442   0.001120
    23  C   -0.046230   0.000000   0.044086   0.041230  -0.005732  -0.099952
    24  C   -0.040279   0.000000  -0.036776  -0.023030   0.051149  -0.093180
    25  C   -0.002073   0.000000  -0.005937   0.001908  -0.034654  -0.003635
    26  C   -0.010198   0.000000   0.000916  -0.000331   0.014451  -0.017110
    27  C   -0.040268   0.000000  -0.016198   0.040277   0.051151  -0.093168
    28  C   -0.046225   0.000000   0.011452  -0.059256  -0.005749  -0.099945
    29  C    0.005061   0.000000  -0.001842   0.025805  -0.000452   0.001138
    30  C    0.005045   0.000000   0.008783  -0.024288   0.000469   0.001121
    31  C   -0.040273   0.000000   0.001581  -0.043372  -0.051142  -0.093172
    32  C   -0.046226   0.000000  -0.013738   0.058783   0.005723  -0.099946
    33  C   -0.010189   0.000000   0.000769   0.000695  -0.014440  -0.017101
    34  C   -0.002070   0.000000  -0.004631  -0.004183   0.034619  -0.003633
    35  C   -0.046230   0.000000   0.057040  -0.019723   0.005742  -0.099952
    36  C   -0.040276   0.000000  -0.042956   0.006117  -0.051161  -0.093177
    37  C    0.005035   0.000000   0.025426  -0.004544  -0.000459   0.001112
    38  C    0.005041   0.000000  -0.023251   0.011275   0.000447   0.001118
    39  C   -0.046227   0.000000  -0.057764   0.017531  -0.005715  -0.099948
    40  C   -0.040269   0.000000   0.038347  -0.020286   0.051156  -0.093170
    41  C   -0.002063   0.000000   0.001316  -0.006105  -0.034615  -0.003626
    42  C   -0.010172   0.000000  -0.000197   0.001055   0.014433  -0.017084
    43  C   -0.040263   0.000000  -0.026805  -0.034126   0.051150  -0.093164
    44  C   -0.046225   0.000000   0.045607   0.039516  -0.005734  -0.099945
    45  C    0.005048   0.000000  -0.021418  -0.014472  -0.000452   0.001125
    46  C    0.005048   0.000000   0.016636   0.019750   0.000454   0.001125
    47  C   -0.040280   0.000000   0.036783   0.023035  -0.051148  -0.093180
    48  C   -0.046227   0.000000  -0.044090  -0.041237   0.005735  -0.099948
    49  H    0.042341   0.000000   0.024917   0.113530  -0.086234   0.100838
    50  H    0.045240   0.000000   0.026777  -0.002483  -0.145492   0.101525
    51  H    0.042357   0.000000   0.069027  -0.093565   0.086229   0.100850
    52  H    0.045238   0.000000   0.023480   0.013177   0.145485   0.101523
    53  H    0.045239   0.000000   0.015547   0.021952   0.145488   0.101524
    54  H    0.042344   0.000000  -0.085838   0.078382   0.086239   0.100840
    55  H    0.045238   0.000000   0.000323   0.026908  -0.145483   0.101524
    56  H    0.042355   0.000000   0.115525   0.013018  -0.086237   0.100850
    57  H    0.042337   0.000000  -0.110774  -0.035146  -0.086245   0.100835
    58  H    0.045238   0.000000  -0.011215   0.024416  -0.145490   0.101525
    59  H    0.042344   0.000000   0.046551   0.106505   0.086245   0.100841
    60  H    0.045235   0.000000  -0.023120   0.013739   0.145490   0.101521
    61  H    0.045241   0.000000  -0.026790   0.002486   0.145490   0.101526
    62  H    0.042347   0.000000  -0.024936  -0.113542   0.086225   0.100842
    63  H    0.045239   0.000000  -0.023493  -0.013189  -0.145484   0.101524
    64  H    0.042362   0.000000  -0.069054   0.093567  -0.086219   0.100853
    65  H    0.042339   0.000000   0.085838  -0.078358  -0.086248   0.100837
    66  H    0.045237   0.000000  -0.015535  -0.021941  -0.145490   0.101523
    67  H    0.042350   0.000000  -0.115509  -0.012994   0.086246   0.100846
    68  H    0.045236   0.000000  -0.000327  -0.026888   0.145486   0.101523
    69  H    0.045240   0.000000   0.011218  -0.024429   0.145488   0.101526
    70  H    0.042342   0.000000   0.110794   0.035135   0.086236   0.100839
    71  H    0.045237   0.000000   0.023138  -0.013745  -0.145488   0.101522
    72  H    0.042350   0.000000  -0.046539  -0.106530  -0.086235   0.100845
       Tot   0.000056   0.000000   0.000005   0.000004   0.000001   0.000056
 Hirshfeld charges with hydrogens summed into heavy atoms:
              Q-H       Q-CM5   
     1  C   -0.010198  -0.017110
     2  C   -0.002073  -0.003635
     3  C   -0.003888   0.000889
     4  C    0.004972   0.008357
     5  C    0.005041   0.001118
     6  C    0.005057   0.001133
     7  C   -0.003872   0.000900
     8  C    0.004965   0.008351
     9  C   -0.002070  -0.003633
    10  C   -0.010189  -0.017101
    11  C    0.004961   0.008347
    12  C   -0.003883   0.000892
    13  C    0.005046   0.001123
    14  C    0.005039   0.001116
    15  C    0.004968   0.008353
    16  C   -0.003868   0.000905
    17  C   -0.010172  -0.017084
    18  C   -0.002063  -0.003626
    19  C   -0.003892   0.000887
    20  C    0.004976   0.008362
    21  C    0.005044   0.001121
    22  C    0.005043   0.001120
    23  C   -0.003886   0.000890
    24  C    0.004956   0.008341
    25  C   -0.002073  -0.003635
    26  C   -0.010198  -0.017110
    27  C    0.004973   0.008358
    28  C   -0.003878   0.000896
    29  C    0.005061   0.001138
    30  C    0.005045   0.001121
    31  C    0.004966   0.008352
    32  C   -0.003863   0.000907
    33  C   -0.010189  -0.017101
    34  C   -0.002070  -0.003633
    35  C   -0.003892   0.000885
    36  C    0.004961   0.008346
    37  C    0.005035   0.001112
    38  C    0.005041   0.001118
    39  C   -0.003877   0.000898
    40  C    0.004967   0.008353
    41  C   -0.002063  -0.003626
    42  C   -0.010172  -0.017084
    43  C    0.004976   0.008362
    44  C   -0.003883   0.000894
    45  C    0.005048   0.001125
    46  C    0.005048   0.001125
    47  C    0.004957   0.008342
    48  C   -0.003877   0.000896
 
 EQQ=  0.00000000000     EQD=  0.00000000000     EDD= 0.244950293361E-01
 EQQ+QD+DD= 0.244950293361E-01
 
 1\1\GINC-CU16\SP\RB3LYP\6-311G(d)\C48H24\WANG\04-Jun-2025\0\\# B3LYP/6
 -311G* Pop=Hirshfeld NOSYMM\\From ../../6x1_m1_CNB_opt.out\\0,1\C,0,3.
 534627,-1.148165,-1.7623\C,0,3.480533,-1.130586,-0.348358\C,0,3.676424
 ,1.256882,-1.854868\C,0,3.837652,0.049174,-2.472659\C,0,3.394548,1.335
 933,-0.454229\C,0,3.644802,0.16024,0.319666\C,0,3.870608,0.347306,1.72
 0156\C,0,3.526036,1.516005,2.337994\C,0,2.719315,2.448183,0.213837\C,0
 ,2.761598,2.486159,1.627785\C,0,1.876133,3.347146,2.338165\C,0,0.74963
 1,3.811436,1.720394\C,0,1.683418,3.235643,-0.454162\C,0,0.540127,3.606
 769,0.319761\C,0,0.449862,3.810504,-2.472502\C,0,1.634265,3.524539,-1.
 85469\C,0,-0.772517,3.633762,-1.762242\C,0,-0.760746,3.57826,-0.348275
 \C,0,-2.926576,2.554657,-1.854875\C,0,-1.960943,3.297705,-2.472643\C,0
 ,-2.85429,2.271113,-0.454229\C,0,-1.960862,3.075241,0.319703\C,0,-2.23
 5619,3.177166,1.720233\C,0,-3.075963,2.29486,2.338019\C,0,-3.480559,1.
 130544,0.213784\C,0,-3.534636,1.148111,1.627725\C,0,-3.837806,-0.04921
 5,2.338071\C,0,-3.67661,-1.256917,1.720276\C,0,-3.644925,-0.160272,-0.
 454248\C,0,-3.394656,-1.335957,0.31964\C,0,-3.526207,-1.516063,-2.4725
 67\C,0,-3.870828,-0.347383,-1.854728\C,0,-2.761621,-2.486127,-1.762374
 \C,0,-2.719334,-2.448146,-0.348425\C,0,-0.749548,-3.811262,-1.854978\C
 ,0,-1.876063,-3.346993,-2.472758\C,0,-0.540092,-3.606671,-0.45434\C,0,
 -1.683387,-3.235521,0.31958\C,0,-1.634232,-3.524285,1.720123\C,0,-0.44
 9841,-3.810294,2.337946\C,0,0.760783,-3.578264,0.213705\C,0,0.772546,-
 3.633742,1.627672\C,0,1.961031,-3.297822,2.338066\C,0,2.92668,-2.55480
 7,1.720299\C,0,1.960946,-3.075338,-0.454271\C,0,2.854355,-2.271199,0.3
 19655\C,0,3.076112,-2.295002,-2.472574\C,0,2.235802,-3.177335,-1.85478
 9\H,0,3.785334,2.160235,-2.437002\H,0,4.038674,-0.001527,-3.539783\H,0
 ,4.338229,-0.433283,2.302222\H,0,3.689209,1.644189,3.405084\H,0,2.0206
 ,3.495913,3.405278\H,0,0.021973,4.357692,2.302533\H,0,0.4204,4.015825,
 -3.539606\H,0,2.54406,3.539296,-2.436792\H,0,-3.763396,2.197543,-2.437
 083\H,0,-2.01736,3.497042,-3.539797\H,0,-1.792955,3.972066,2.30242\H,0
 ,-3.268369,2.372044,3.405146\H,0,-4.03892,0.0015,3.405177\H,0,-3.78569
 9,-2.160301,2.302344\H,0,-3.689471,-1.644312,-3.539634\H,0,-4.338656,0
 .433137,-2.436729\H,0,-0.021817,-4.357344,-2.437174\H,0,-2.020458,-3.4
 95684,-3.539892\H,0,-2.543987,-3.538807,2.302285\H,0,-0.420395,-4.0154
 83,3.405075\H,0,2.017475,-3.497245,3.405202\H,0,3.763615,-2.197841,2.3
 02447\H,0,3.268631,-2.372241,-3.539677\H,0,1.793307,-3.972383,-2.43691
 \\Version=ES64L-G16RevB.01\HF=-1843.8428749\RMSD=6.210e-09\Dipole=0.00
 00058,0.0000089,0.0000006\Quadrupole=-11.0728566,-11.076811,22.1496676
 ,0.0022086,0.0021144,-0.0007127\PG=C01 [X(C48H24)]\\@


 Democracy is the recurrent suspicion that more than half of the people
 are right more than half of the time.
 -- E. B. White
 Job cpu time:       0 days  1 hours  1 minutes 20.8 seconds.
 Elapsed time:       0 days  0 hours  1 minutes 56.3 seconds.
 File lengths (MBytes):  RWF=    476 Int=      0 D2E=      0 Chk=     52 Scr=      1
 Normal termination of Gaussian 16 at Wed Jun  4 14:57:06 2025.
