 Entering Gaussian System, Link 0=g16
 Initial command:
 /opt/software/g16/l1.exe "/tmp/7circulene_sgp-32612.tmp/Gau-206107.inp" -scrdir="/tmp/7circulene_sgp-32612.tmp/"
 Entering Link 1 = /opt/software/g16/l1.exe PID=    206108.
  
 Copyright (c) 1988-2017, Gaussian, Inc.  All Rights Reserved.
  
 This is part of the Gaussian(R) 16 program.  It is based on
 the Gaussian(R) 09 system (copyright 2009, Gaussian, Inc.),
 the Gaussian(R) 03 system (copyright 2003, Gaussian, Inc.),
 the Gaussian(R) 98 system (copyright 1998, Gaussian, Inc.),
 the Gaussian(R) 94 system (copyright 1995, Gaussian, Inc.),
 the Gaussian 92(TM) system (copyright 1992, Gaussian, Inc.),
 the Gaussian 90(TM) system (copyright 1990, Gaussian, Inc.),
 the Gaussian 88(TM) system (copyright 1988, Gaussian, Inc.),
 the Gaussian 86(TM) system (copyright 1986, Carnegie Mellon
 University), and the Gaussian 82(TM) system (copyright 1983,
 Carnegie Mellon University). Gaussian is a federally registered
 trademark of Gaussian, Inc.
  
 This software contains proprietary and confidential information,
 including trade secrets, belonging to Gaussian, Inc.
  
 This software is provided under written license and may be
 used, copied, transmitted, or stored only in accord with that
 written license.
  
 The following legend is applicable only to US Government
 contracts under FAR:
  
                    RESTRICTED RIGHTS LEGEND
  
 Use, reproduction and disclosure by the US Government is
 subject to restrictions as set forth in subparagraphs (a)
 and (c) of the Commercial Computer Software - Restricted
 Rights clause in FAR 52.227-19.
  
 Gaussian, Inc.
 340 Quinnipiac St., Bldg. 40, Wallingford CT 06492
  
  
 ---------------------------------------------------------------
 Warning -- This program may not be used in any manner that
 competes with the business of Gaussian, Inc. or will provide
 assistance to any competitor of Gaussian, Inc.  The licensee
 of this program is prohibited from giving any competitor of
 Gaussian, Inc. access to this program.  By using this program,
 the user acknowledges that Gaussian, Inc. is engaged in the
 business of creating and licensing software in the field of
 computational chemistry and represents and warrants to the
 licensee that it is not a competitor of Gaussian, Inc. and that
 it will not use this program in any manner prohibited above.
 ---------------------------------------------------------------
  

 Cite this work as:
 Gaussian 16, Revision B.01,
 M. J. Frisch, G. W. Trucks, H. B. Schlegel, G. E. Scuseria, 
 M. A. Robb, J. R. Cheeseman, G. Scalmani, V. Barone, 
 G. A. Petersson, H. Nakatsuji, X. Li, M. Caricato, A. V. Marenich, 
 J. Bloino, B. G. Janesko, R. Gomperts, B. Mennucci, H. P. Hratchian, 
 J. V. Ortiz, A. F. Izmaylov, J. L. Sonnenberg, D. Williams-Young, 
 F. Ding, F. Lipparini, F. Egidi, J. Goings, B. Peng, A. Petrone, 
 T. Henderson, D. Ranasinghe, V. G. Zakrzewski, J. Gao, N. Rega, 
 G. Zheng, W. Liang, M. Hada, M. Ehara, K. Toyota, R. Fukuda, 
 J. Hasegawa, M. Ishida, T. Nakajima, Y. Honda, O. Kitao, H. Nakai, 
 T. Vreven, K. Throssell, J. A. Montgomery, Jr., J. E. Peralta, 
 F. Ogliaro, M. J. Bearpark, J. J. Heyd, E. N. Brothers, K. N. Kudin, 
 V. N. Staroverov, T. A. Keith, R. Kobayashi, J. Normand, 
 K. Raghavachari, A. P. Rendell, J. C. Burant, S. S. Iyengar, 
 J. Tomasi, M. Cossi, J. M. Millam, M. Klene, C. Adamo, R. Cammi, 
 J. W. Ochterski, R. L. Martin, K. Morokuma, O. Farkas, 
 J. B. Foresman, and D. J. Fox, Gaussian, Inc., Wallingford CT, 2016.
 
 ******************************************
 Gaussian 16:  ES64L-G16RevB.01 20-Dec-2017
                 7-Jul-2025 
 ******************************************
 %nproc=28
 Will use up to   28 processors via shared memory.
 ------------------------------------
 # B3LYP/6-311G* Pop=Hirshfeld NOSYMM
 ------------------------------------
 1/38=1,172=1/1;
 2/12=2,15=1,17=6,18=5,40=1/2;
 3/5=4,6=6,7=1,11=2,25=1,30=1,74=-5/1,2,3;
 4//1;
 5/5=2,38=5/2;
 6/7=2,8=2,9=2,10=2,28=1,79=1/1;
 99/5=1,9=1/99;
 -----------------------------
 From ../../7circulene_opt.out
 -----------------------------
 Symbolic Z-matrix:
 Charge =  0 Multiplicity = 1
 6                     1.29806   2.822    -0.06243 
 6                     0.70093   1.5152   -0.02102 
 6                     3.35678   2.00122  -0.98659 
 6                     2.58053   3.04916  -0.62734 
 6                     2.93665   0.68189  -0.66593 
 6                     1.6014    0.38295  -0.23358 
 6                     3.77765  -1.47104  -0.03386 
 6                     3.98353  -0.28074  -0.64138 
 6                     2.46546  -1.84784   0.36132 
 6                     1.32116  -1.01155   0.1255 
 6                     1.13268  -3.73618   1.00197 
 6                     2.34887  -3.14949   0.91564 
 6                    -0.01034  -3.05527   0.50557 
 6                     0.01346  -1.65763   0.17622 
 6                    -2.20431  -3.3732   -0.41286 
 6                    -1.1322   -3.88514   0.2326 
 6                    -2.31366  -1.96604  -0.58757 
 6                    -1.27029  -1.05692  -0.2056 
 6                    -3.94704  -0.2294   -0.81859 
 6                    -3.58952  -1.51814  -1.02293 
 6                    -3.0196    0.67942  -0.24508 
 6                    -1.62919   0.35338  -0.08454 
 6                    -2.76792   2.83766   0.77829 
 6                    -3.57068   1.90339   0.22031 
 6                    -1.35653   2.68206   0.69729 
 6                    -0.73754   1.46902   0.24589 
 6                     0.6517    3.96654   0.4751 
 6                    -0.62005   3.87648   0.92646 
 1                     4.35176   2.14592  -1.39813 
 1                     2.9245    4.07439  -0.73439 
 1                     4.58642  -2.18132   0.11435 
 1                     4.96456   0.00846  -1.00755 
 1                     1.01936  -4.76074   1.34549 
 1                     3.25683  -3.68171   1.186 
 1                    -3.03864  -3.99999  -0.71499 
 1                    -1.06669  -4.9418    0.47673 
 1                    -4.95437   0.12079  -1.02701 
 1                    -4.29596  -2.25003  -1.40461 
 1                    -3.16745   3.76669   1.17506 
 1                    -4.64489   2.04854   0.14465 
 1                     1.20218   4.90285   0.50888 
 1                    -1.13762   4.73618   1.34268 
 
                          Input orientation:                          
 ---------------------------------------------------------------------
 Center     Atomic      Atomic             Coordinates (Angstroms)
 Number     Number       Type             X           Y           Z
 ---------------------------------------------------------------------
      1          6           0        1.298059    2.822004   -0.062430
      2          6           0        0.700928    1.515197   -0.021015
      3          6           0        3.356779    2.001224   -0.986593
      4          6           0        2.580528    3.049157   -0.627340
      5          6           0        2.936653    0.681889   -0.665925
      6          6           0        1.601401    0.382947   -0.233582
      7          6           0        3.777654   -1.471037   -0.033864
      8          6           0        3.983525   -0.280737   -0.641379
      9          6           0        2.465464   -1.847844    0.361321
     10          6           0        1.321162   -1.011555    0.125497
     11          6           0        1.132678   -3.736179    1.001966
     12          6           0        2.348867   -3.149488    0.915635
     13          6           0       -0.010338   -3.055273    0.505572
     14          6           0        0.013460   -1.657628    0.176219
     15          6           0       -2.204308   -3.373200   -0.412861
     16          6           0       -1.132204   -3.885142    0.232603
     17          6           0       -2.313656   -1.966042   -0.587573
     18          6           0       -1.270292   -1.056917   -0.205595
     19          6           0       -3.947039   -0.229398   -0.818592
     20          6           0       -3.589518   -1.518136   -1.022931
     21          6           0       -3.019601    0.679417   -0.245083
     22          6           0       -1.629192    0.353375   -0.084540
     23          6           0       -2.767917    2.837660    0.778287
     24          6           0       -3.570684    1.903391    0.220309
     25          6           0       -1.356528    2.682058    0.697288
     26          6           0       -0.737542    1.469015    0.245888
     27          6           0        0.651701    3.966536    0.475104
     28          6           0       -0.620047    3.876484    0.926464
     29          1           0        4.351763    2.145918   -1.398127
     30          1           0        2.924504    4.074393   -0.734393
     31          1           0        4.586416   -2.181320    0.114351
     32          1           0        4.964564    0.008459   -1.007547
     33          1           0        1.019356   -4.760741    1.345488
     34          1           0        3.256830   -3.681706    1.185995
     35          1           0       -3.038638   -3.999994   -0.714993
     36          1           0       -1.066687   -4.941802    0.476733
     37          1           0       -4.954365    0.120791   -1.027011
     38          1           0       -4.295957   -2.250034   -1.404610
     39          1           0       -3.167448    3.766694    1.175061
     40          1           0       -4.644892    2.048535    0.144654
     41          1           0        1.202176    4.902852    0.508878
     42          1           0       -1.137616    4.736175    1.342675
 ---------------------------------------------------------------------
                    Distance matrix (angstroms):
                    1          2          3          4          5
     1  C    0.000000
     2  C    1.437367   0.000000
     3  C    2.401267   2.867422   0.000000
     4  C    1.419665   2.500712   1.352698   0.000000
     5  C    2.762117   2.471594   1.421260   2.394216   0.000000
     6  C    2.463800   1.462199   2.503437   2.867475   1.434986
     7  C    4.957762   4.287657   3.625110   4.713542   2.396221
     8  C    4.144142   3.792845   2.391512   3.613418   1.422390
     9  C    4.832171   3.817042   4.174523   4.997130   2.770704
    10  C    3.838232   2.605884   3.802278   4.317655   2.470610
    11  C    6.646056   5.367481   6.466745   7.126829   5.055246
    12  C    6.141622   5.035107   5.582490   6.391998   4.186439
    13  C    6.047885   4.655361   6.255573   6.727566   4.901382
    14  C    4.666289   3.252435   5.090885   5.421196   3.837656
    15  C    7.125302   5.700032   7.754953   8.011699   6.552654
    16  C    7.139960   5.708621   7.502447   7.912546   6.182291
    17  C    6.020436   4.639798   6.931973   7.007627   5.880767
    18  C    4.654348   3.245851   5.601069   5.645044   4.575340
    19  C    6.115054   5.028254   7.638695   7.307163   6.945428
    20  C    6.606647   5.349100   7.787057   7.686750   6.896265
    21  C    4.823508   3.819826   6.554024   6.092884   5.971103
    22  C    3.829284   2.604482   5.328134   5.028282   4.614420
    23  C    4.152013   3.797457   6.428556   5.534111   6.266994
    24  C    4.962706   4.295998   7.032491   6.314166   6.680038
    25  C    2.764704   2.471973   5.051164   4.170109   4.928532
    26  C    2.463597   1.463751   4.308796   3.777428   3.866611
    27  C    1.420097   2.501524   3.649172   2.403610   4.160752
    28  C    2.401868   2.866770   4.794949   3.652733   5.038974
    29  H    3.400924   3.952574   1.086411   2.132423   2.163802
    30  H    2.159939   3.464489   2.132720   1.086687   3.393217
    31  H    5.989808   5.364660   4.496416   5.650804   3.395367
    32  H    4.717260   4.628401   2.560571   3.882529   2.163940
    33  H    7.717378   6.430873   7.525046   8.205109   6.110976
    34  H    6.906055   5.915852   6.084885   7.003577   4.751114
    35  H    8.110021   6.699499   8.774380   9.015167   7.591215
    36  H    8.133843   6.713051   8.361458   8.853055   6.997021
    37  H    6.878937   5.910900   8.521313   8.093805   7.919178
    38  H    7.669422   6.407820   8.764263   8.716170   7.839163
    39  H    4.729120   4.632944   7.096138   6.066526   7.082747
    40  H    5.996649   5.374913   8.081380   7.335115   7.746263
    41  H    2.159980   3.465291   3.911290   2.574302   4.712229
    42  H    3.401600   3.951531   5.753697   4.533385   6.088627
                    6          7          8          9         10
     6  C    0.000000
     7  C    2.865872   0.000000
     8  C    2.506250   1.352136   0.000000
     9  C    2.465146   1.421266   2.401196   0.000000
    10  C    1.467006   2.504171   2.865374   1.436809   0.000000
    11  C    4.325908   3.633141   4.771582   2.398448   2.868327
    12  C    3.789129   2.400037   3.650497   1.419555   2.500251
    13  C    3.868515   4.141217   4.996448   2.758313   2.468630
    14  C    2.617908   3.774667   4.280854   2.466327   1.459475
    15  C    5.350159   6.288540   6.921331   4.973212   4.277398
    16  C    5.089844   5.477738   6.318723   4.136468   3.779944
    17  C    4.579381   6.136423   6.519021   4.873844   3.825103
    18  C    3.212571   5.067815   5.328692   3.860419   2.612913
    19  C    5.612699   7.863100   7.932710   6.718017   5.408975
    20  C    5.584159   7.433417   7.682950   6.219941   5.068559
    21  C    4.630517   7.132443   7.079740   6.069655   4.673215
    22  C    3.234164   5.706578   5.675805   4.670157   3.257566
    23  C    5.112772   7.878386   7.571118   7.036767   5.653597
    24  C    5.410012   8.090083   7.910689   7.108216   5.695266
    25  C    3.860282   6.643990   6.251908   5.936372   4.597798
    26  C    2.622992   5.395291   5.112470   4.612388   3.225831
    27  C    3.774424   6.292681   5.512433   6.091773   5.035056
    28  C    4.299458   6.989849   6.397929   6.527457   5.320034
    29  H    3.468245   3.908091   2.568447   4.754358   4.634178
    30  H    3.953250   5.654237   4.483005   6.040215   5.401572
    31  H    3.950549   1.086538   2.132328   2.161166   3.468481
    32  H    3.471329   2.132070   1.086347   3.400759   3.949506
    33  H    5.412002   4.509210   5.727510   3.397761   3.954221
    34  H    4.612705   2.578056   3.928609   2.160879   3.464271
    35  H    6.400929   7.302150   7.946639   6.007107   5.352107
    36  H    5.998016   5.981184   6.962783   4.697019   4.612161
    37  H    6.608806   8.931316   8.955212   7.801080   6.480179
    38  H    6.563743   8.226115   8.544617   6.999792   5.952065
    39  H    6.014644   8.782355   8.415317   7.994680   6.639342
    40  H    6.475602   9.130090   8.971786   8.110849   6.705096
    41  H    4.597844   6.895949   5.994046   6.869466   5.928014
    42  H    5.379349   8.036431   7.438546   7.569316   6.368949
                   11         12         13         14         15
    11  C    0.000000
    12  C    1.353061   0.000000
    13  C    1.420044   2.396430   0.000000
    14  C    2.500976   2.868189   1.436124   0.000000
    15  C    3.642659   4.748300   2.399604   2.865082   0.000000
    16  C    2.396623   3.622924   1.421892   2.505503   1.352078
    17  C    4.187748   5.039772   2.772483   2.468596   1.422173
    18  C    3.796171   4.328316   2.467118   1.467874   2.506095
    19  C    6.435485   7.153524   5.023604   4.326089   3.617350
    20  C    5.596343   6.456296   4.184452   3.799851   2.394213
    21  C    6.188218   6.695389   4.854591   3.852108   4.137216
    22  C    5.053006   5.394011   3.819398   2.609681   3.784959
    23  C    7.647224   7.876946   6.511933   5.320353   6.349116
    24  C    7.384941   7.813843   6.111120   5.052612   5.487285
    25  C    6.890772   6.912637   5.896266   4.580530   6.214283
    26  C    5.582421   5.595092   4.589711   3.216326   5.102195
    27  C    7.735680   7.328863   7.053015   5.668148   7.925717
    28  C    7.812195   7.627506   6.971237   5.620551   7.540663
    29  H    7.121939   6.116078   7.050134   5.980502   8.626325
    30  H    8.199428   7.432255   7.809158   6.493031   9.048466
    31  H    3.890212   2.566326   4.695423   4.603261   6.914656
    32  H    5.722220   4.529142   6.035365   5.356359   7.948710
    33  H    1.086543   2.132723   2.162024   3.465303   3.925439
    34  H    2.132805   1.086622   3.395553   3.954237   5.698732
    35  H    4.518564   5.692760   3.398952   3.949207   1.086398
    36  H    2.562538   3.882143   2.162336   3.470277   2.132152
    37  H    7.486325   8.234427   6.072857   5.412007   4.488649
    38  H    6.121300   7.095508   4.760644   4.628287   2.572948
    39  H    8.649517   8.850458   7.546840   6.367035   7.377481
    40  H    8.220597   8.747944   6.903492   5.952889   5.971807
    41  H    8.653371   8.143742   8.049966   6.675598   8.997042
    42  H    8.777876   8.632590   7.916954   6.600478   8.365507
                   16         17         18         19         20
    16  C    0.000000
    17  C    2.398221   0.000000
    18  C    2.865300   1.435627   0.000000
    19  C    4.732100   2.395254   2.868018   0.000000
    20  C    3.635585   1.420556   2.501913   1.352931   0.000000
    21  C    4.962424   2.759368   2.465055   1.419506   2.399811
    22  C    4.279323   2.470066   1.460270   2.500174   2.868102
    23  C    6.940417   5.014726   4.287031   3.653381   4.784598
    24  C    6.281198   4.147928   3.773145   2.402030   3.640446
    25  C    6.587440   4.916482   3.847411   4.181533   5.058362
    26  C    5.368699   3.870195   2.620685   3.783992   4.320502
    27  C    8.055431   6.717001   5.421484   6.358295   7.093213
    28  C    7.809391   6.268631   5.103217   5.565282   6.459088
    29  H    8.313054   7.873565   6.579345   8.651480   8.753857
    30  H    8.985887   7.996670   6.648781   8.108502   8.590234
    31  H    5.968216   6.939023   5.972242   8.803422   8.281251
    32  H    7.339529   7.552981   6.375859   8.916779   8.689249
    33  H    2.575732   4.759836   4.622408   7.062676   6.112742
    34  H    4.495994   6.092566   5.414875   8.236051   7.512181
    35  H    2.132046   2.163052   3.471057   3.879861   2.560842
    36  H    1.086472   3.397474   3.949602   5.672834   4.509452
    37  H    5.678296   3.394307   3.954000   1.086635   2.132816
    38  H    3.919614   2.162803   3.466383   2.132635   1.086467
    39  H    7.973772   6.058061   5.364013   4.533339   5.739228
    40  H    6.896030   4.699750   4.599395   2.569790   3.898488
    41  H    9.096950   7.793907   6.491719   7.390303   8.156951
    42  H    8.692491   7.073093   5.997888   6.100889   7.122101
                   21         22         23         24         25
    21  C    0.000000
    22  C    1.437120   0.000000
    23  C    2.401800   2.865805   0.000000
    24  C    1.420702   2.502973   1.352270   0.000000
    25  C    2.768474   2.471511   1.422249   2.395061   0.000000
    26  C    2.464206   1.465904   2.505805   2.866362   1.434705
    27  C    4.980189   4.309363   3.613872   4.706381   2.394208
    28  C    4.165527   3.801684   2.390493   3.619117   1.421823
    29  H    7.603758   6.380481   7.476973   8.089705   6.104326
    30  H    6.862774   5.916454   6.018419   6.914635   4.723933
    31  H    8.134157   6.715506   8.928448   9.123287   7.701353
    32  H    8.048505   6.666973   8.425250   8.828865   7.071831
    33  H    6.959771   5.934136   8.508869   8.169771   7.839658
    34  H    7.775665   6.462921   8.886278   8.873602   7.875240
    35  H    4.702985   4.619072   7.004048   6.000651   7.033765
    36  H    5.994414   5.354469   7.969012   7.293313   7.632555
    37  H    2.160275   3.463975   3.926962   2.578380   4.741068
    38  H    3.399304   3.953727   5.743220   4.518553   6.114225
    39  H    3.401462   3.950136   1.086351   2.132147   2.164286
    40  H    2.160544   3.467066   2.132427   1.086606   3.394126
    41  H    6.019075   5.391338   4.483217   5.644487   3.393286
    42  H    4.745538   4.635464   2.565302   3.899255   2.164219
                   26         27         28         29         30
    26  C    0.000000
    27  C    2.867080   0.000000
    28  C    2.504575   1.352471   0.000000
    29  H    5.390919   4.529250   5.754779   0.000000
    30  H    4.599949   2.576849   3.919369   2.489302   0.000000
    31  H    6.456530   7.308095   8.028934   4.589950   6.528113
    32  H    6.018167   6.038660   7.063278   2.257611   4.557223
    33  H    6.565491   8.778274   8.801413   8.144587   9.274432
    34  H    6.585494   8.110960   8.498457   6.468212   7.997212
    35  H    6.010690   8.860053   8.401361   9.636230  10.037687
    36  H    6.423410   9.072560   8.841036   9.116495   9.934194
    37  H    4.606471   6.962333   6.058680   9.531153   8.820044
    38  H    5.405348   8.164459   7.515347   9.700902   9.621987
    39  H    3.470898   3.887901   2.561856   8.110903   6.391602
    40  H    3.951389   5.642856   4.489098   9.128497   7.884959
    41  H    3.952582   1.086670   2.132676   4.599701   2.280018
    42  H    3.469486   2.132294   1.086360   6.659933   4.610096
                   31         32         33         34         35
    31  H    0.000000
    32  H    2.489334   0.000000
    33  H    4.570889   6.621685   0.000000
    34  H    2.273187   4.620097   2.489185   0.000000
    35  H    7.882692   8.955698   4.614286   6.583918   0.000000
    36  H    6.301520   7.942554   2.266957   4.558914   2.489137
    37  H    9.880735   9.919584   8.071149   9.315584   4.555023
    38  H    9.011577   9.540215   6.489934   8.112060   2.262473
    39  H    9.829872   9.220506   9.501343   9.836164   7.994394
    40  H   10.154292   9.890962   8.938230   9.816174   6.316941
    41  H    7.860930   6.356901   9.701462   8.852950   9.936953
    42  H    9.062288   8.069166   9.738786   9.497180   9.174341
                   36         37         38         39         40
    36  H    0.000000
    37  H    6.557830   0.000000
    38  H    4.605785   2.489356   0.000000
    39  H    8.985475   4.618961   6.642985   0.000000
    40  H    7.859939   2.277009   4.582540   2.489307   0.000000
    41  H   10.102771   7.945443   9.222509   4.563800   6.516747
    42  H    9.716899   6.440866   8.144311   2.255705   4.578171
                   41         42
    41  H    0.000000
    42  H    2.489503   0.000000
 Symmetry turned off by external request.
 Stoichiometry    C28H14
 Framework group  C1[X(C28H14)]
 Deg. of freedom   120
 Full point group                 C1      NOp   1
 Rotational constants (GHZ):           0.2367311           0.2367264           0.1257217
 Standard basis: 6-311G(d) (5D, 7F)
   546 basis functions,   966 primitive gaussians,   574 cartesian basis functions
    91 alpha electrons       91 beta electrons
       nuclear repulsion energy      2331.7752839158 Hartrees.
 NAtoms=   42 NActive=   42 NUniq=   42 SFac= 1.00D+00 NAtFMM=   60 NAOKFM=F Big=F
 Integral buffers will be    131072 words long.
 Raffenetti 2 integral format.
 Two-electron integral symmetry is turned off.
 One-electron integrals computed using PRISM.
 NBasis=   546 RedAO= T EigKep=  3.23D-05  NBF=   546
 NBsUse=   546 1.00D-06 EigRej= -1.00D+00 NBFU=   546
 ExpMin= 1.03D-01 ExpMax= 4.56D+03 ExpMxC= 6.82D+02 IAcc=3 IRadAn=         5 AccDes= 0.00D+00
 Harris functional with IExCor=  402 and IRadAn=       5 diagonalized for initial guess.
 HarFok:  IExCor=  402 AccDes= 0.00D+00 IRadAn=         5 IDoV= 1 UseB2=F ITyADJ=14
 ICtDFT=  3500011 ScaDFX=  1.000000  1.000000  1.000000  1.000000
 FoFCou: FMM=F IPFlag=           0 FMFlag=      100000 FMFlg1=           0
         NFxFlg=           0 DoJE=T BraDBF=F KetDBF=T FulRan=T
         wScrn=  0.000000 ICntrl=       500 IOpCl=  0 I1Cent=   200000004 NGrid=           0
         NMat0=    1 NMatS0=      1 NMatT0=    0 NMatD0=    1 NMtDS0=    0 NMtDT0=    0
 Symmetry not used in FoFCou.
 Requested convergence on RMS density matrix=1.00D-08 within 128 cycles.
 Requested convergence on MAX density matrix=1.00D-06.
 Requested convergence on             energy=1.00D-06.
 No special actions if energy rises.
 Integral accuracy reduced to 1.0D-05 until final iterations.
 Initial convergence to 1.0D-05 achieved.  Increase integral accuracy.
 SCF Done:  E(RB3LYP) =  -1075.65800977     A.U. after   14 cycles
            NFock= 14  Conv=0.75D-08     -V/T= 2.0044

 **********************************************************************

            Population analysis using the SCF Density.

 **********************************************************************

 Alpha  occ. eigenvalues --  -10.20384 -10.20368 -10.20350 -10.20307 -10.20271
 Alpha  occ. eigenvalues --  -10.20253 -10.20243 -10.18780 -10.18773 -10.18752
 Alpha  occ. eigenvalues --  -10.18732 -10.18699 -10.18679 -10.18662 -10.17504
 Alpha  occ. eigenvalues --  -10.17503 -10.17502 -10.17501 -10.17499 -10.17499
 Alpha  occ. eigenvalues --  -10.17497 -10.17432 -10.17431 -10.17429 -10.17427
 Alpha  occ. eigenvalues --  -10.17424 -10.17424 -10.17422  -0.90151  -0.87951
 Alpha  occ. eigenvalues --   -0.87950  -0.84249  -0.84153  -0.80325  -0.79780
 Alpha  occ. eigenvalues --   -0.79780  -0.76290  -0.76290  -0.74500  -0.74498
 Alpha  occ. eigenvalues --   -0.70650  -0.70607  -0.66050  -0.65940  -0.62386
 Alpha  occ. eigenvalues --   -0.62386  -0.61813  -0.59270  -0.59268  -0.55249
 Alpha  occ. eigenvalues --   -0.55248  -0.55246  -0.52160  -0.51014  -0.51011
 Alpha  occ. eigenvalues --   -0.49959  -0.49658  -0.46929  -0.46929  -0.45285
 Alpha  occ. eigenvalues --   -0.44875  -0.44264  -0.44195  -0.44144  -0.42759
 Alpha  occ. eigenvalues --   -0.42758  -0.42405  -0.41164  -0.41093  -0.39661
 Alpha  occ. eigenvalues --   -0.39661  -0.38725  -0.38722  -0.37034  -0.36956
 Alpha  occ. eigenvalues --   -0.36955  -0.34882  -0.34776  -0.34193  -0.34175
 Alpha  occ. eigenvalues --   -0.33203  -0.32937  -0.31288  -0.29773  -0.29771
 Alpha  occ. eigenvalues --   -0.26948  -0.26947  -0.23849  -0.23849  -0.20095
 Alpha  occ. eigenvalues --   -0.19626
 Alpha virt. eigenvalues --   -0.06502  -0.05551  -0.04457  -0.04445  -0.00876
 Alpha virt. eigenvalues --    0.02513   0.02624   0.02706   0.03976   0.04809
 Alpha virt. eigenvalues --    0.04810   0.06375   0.06426   0.06965   0.06965
 Alpha virt. eigenvalues --    0.07852   0.07858   0.10170   0.10170   0.11756
 Alpha virt. eigenvalues --    0.11884   0.12453   0.13470   0.15183   0.15187
 Alpha virt. eigenvalues --    0.17435   0.17575   0.17742   0.18089   0.21201
 Alpha virt. eigenvalues --    0.21234   0.23280   0.23499   0.23783   0.24130
 Alpha virt. eigenvalues --    0.24136   0.26819   0.26882   0.27904   0.28012
 Alpha virt. eigenvalues --    0.29460   0.29475   0.30455   0.30718   0.31697
 Alpha virt. eigenvalues --    0.31698   0.33434   0.33438   0.35559   0.35947
 Alpha virt. eigenvalues --    0.36132   0.36274   0.36351   0.36510   0.37151
 Alpha virt. eigenvalues --    0.37955   0.37994   0.38889   0.38934   0.39235
 Alpha virt. eigenvalues --    0.39514   0.39516   0.39588   0.40352   0.40478
 Alpha virt. eigenvalues --    0.40488   0.40588   0.41865   0.42649   0.42700
 Alpha virt. eigenvalues --    0.42754   0.43711   0.44736   0.44885   0.44902
 Alpha virt. eigenvalues --    0.44999   0.46336   0.46563   0.46601   0.47089
 Alpha virt. eigenvalues --    0.47338   0.47663   0.47730   0.47799   0.48165
 Alpha virt. eigenvalues --    0.48419   0.48608   0.48808   0.49315   0.50802
 Alpha virt. eigenvalues --    0.51331   0.51503   0.51532   0.52576   0.53029
 Alpha virt. eigenvalues --    0.53133   0.53323   0.53611   0.54676   0.54978
 Alpha virt. eigenvalues --    0.55686   0.58204   0.58391   0.59238   0.59337
 Alpha virt. eigenvalues --    0.59526   0.60696   0.61256   0.61343   0.61507
 Alpha virt. eigenvalues --    0.62180   0.62230   0.62655   0.63199   0.63261
 Alpha virt. eigenvalues --    0.65018   0.65381   0.65650   0.66845   0.66856
 Alpha virt. eigenvalues --    0.67940   0.68150   0.69085   0.69865   0.69989
 Alpha virt. eigenvalues --    0.70561   0.74105   0.74995   0.75867   0.75982
 Alpha virt. eigenvalues --    0.76210   0.76443   0.76766   0.76948   0.77874
 Alpha virt. eigenvalues --    0.78448   0.78770   0.80125   0.80518   0.80591
 Alpha virt. eigenvalues --    0.80645   0.82000   0.82044   0.82295   0.82740
 Alpha virt. eigenvalues --    0.82911   0.83112   0.83235   0.83560   0.83692
 Alpha virt. eigenvalues --    0.84008   0.85445   0.86484   0.87910   0.88486
 Alpha virt. eigenvalues --    0.89586   0.89827   0.90358   0.90536   0.92589
 Alpha virt. eigenvalues --    0.93209   0.93929   0.95679   0.95913   0.97199
 Alpha virt. eigenvalues --    0.97321   0.99033   0.99549   1.00853   1.01060
 Alpha virt. eigenvalues --    1.03058   1.03654   1.04695   1.05489   1.06069
 Alpha virt. eigenvalues --    1.07725   1.08018   1.08809   1.11231   1.12137
 Alpha virt. eigenvalues --    1.12709   1.13046   1.13369   1.13816   1.14970
 Alpha virt. eigenvalues --    1.16519   1.16682   1.17923   1.18806   1.19534
 Alpha virt. eigenvalues --    1.19718   1.20467   1.20828   1.21964   1.23168
 Alpha virt. eigenvalues --    1.24629   1.24982   1.25432   1.26922   1.29038
 Alpha virt. eigenvalues --    1.30041   1.30430   1.30852   1.32515   1.33249
 Alpha virt. eigenvalues --    1.33800   1.36894   1.37317   1.37392   1.38098
 Alpha virt. eigenvalues --    1.40488   1.40750   1.40795   1.42028   1.43158
 Alpha virt. eigenvalues --    1.44101   1.44761   1.45114   1.45789   1.46309
 Alpha virt. eigenvalues --    1.46763   1.47495   1.47797   1.49353   1.50240
 Alpha virt. eigenvalues --    1.50749   1.52064   1.52247   1.53209   1.53786
 Alpha virt. eigenvalues --    1.53852   1.55986   1.56059   1.60202   1.60205
 Alpha virt. eigenvalues --    1.61111   1.61139   1.61194   1.62424   1.69536
 Alpha virt. eigenvalues --    1.70705   1.72113   1.72313   1.74945   1.75165
 Alpha virt. eigenvalues --    1.75628   1.76244   1.76479   1.77696   1.78029
 Alpha virt. eigenvalues --    1.78234   1.80884   1.81230   1.81842   1.82499
 Alpha virt. eigenvalues --    1.82593   1.84029   1.84364   1.85178   1.85732
 Alpha virt. eigenvalues --    1.86337   1.86663   1.87224   1.88066   1.90541
 Alpha virt. eigenvalues --    1.90716   1.91487   1.92087   1.92746   1.93001
 Alpha virt. eigenvalues --    1.94898   1.95194   1.95217   1.95309   1.95948
 Alpha virt. eigenvalues --    1.96335   2.00618   2.00805   2.01256   2.02339
 Alpha virt. eigenvalues --    2.03035   2.03203   2.05386   2.05528   2.06058
 Alpha virt. eigenvalues --    2.06756   2.09810   2.10135   2.10679   2.11405
 Alpha virt. eigenvalues --    2.12985   2.17045   2.17080   2.18329   2.18385
 Alpha virt. eigenvalues --    2.21709   2.22530   2.22757   2.24919   2.26137
 Alpha virt. eigenvalues --    2.27905   2.28445   2.32435   2.32482   2.33020
 Alpha virt. eigenvalues --    2.33368   2.33651   2.34124   2.35842   2.36623
 Alpha virt. eigenvalues --    2.37038   2.39002   2.40480   2.41581   2.43131
 Alpha virt. eigenvalues --    2.44586   2.44635   2.46717   2.46988   2.48999
 Alpha virt. eigenvalues --    2.49881   2.52137   2.52242   2.52496   2.55289
 Alpha virt. eigenvalues --    2.55591   2.57749   2.58086   2.58102   2.59212
 Alpha virt. eigenvalues --    2.59910   2.61406   2.63976   2.64143   2.64445
 Alpha virt. eigenvalues --    2.65692   2.66094   2.69965   2.71066   2.73928
 Alpha virt. eigenvalues --    2.74088   2.75348   2.76018   2.77484   2.79176
 Alpha virt. eigenvalues --    2.79330   2.80778   2.83311   2.86446   2.88531
 Alpha virt. eigenvalues --    2.89112   2.89339   2.89622   2.93136   2.93342
 Alpha virt. eigenvalues --    2.96815   2.97062   3.00370   3.02095   3.02464
 Alpha virt. eigenvalues --    3.04860   3.09740   3.09982   3.10056   3.12022
 Alpha virt. eigenvalues --    3.14814   3.15107   3.17161   3.17414   3.18765
 Alpha virt. eigenvalues --    3.19945   3.22260   3.22658   3.23200   3.23292
 Alpha virt. eigenvalues --    3.23313   3.23427   3.25055   3.26312   3.27040
 Alpha virt. eigenvalues --    3.27857   3.28208   3.30612   3.30729   3.30854
 Alpha virt. eigenvalues --    3.31869   3.32223   3.33689   3.34559   3.35269
 Alpha virt. eigenvalues --    3.35618   3.36478   3.42754   3.43996   3.44238
 Alpha virt. eigenvalues --    3.45390   3.46462   3.46903   3.47488   3.49033
 Alpha virt. eigenvalues --    3.50246   3.50322   3.51405   3.57713   3.57766
 Alpha virt. eigenvalues --    3.63895   3.72706   3.75019   3.80921   3.81006
 Alpha virt. eigenvalues --    3.85866   3.85901   3.89441   4.02007   4.02291
 Alpha virt. eigenvalues --    4.18381   4.18963   4.40276   4.40322   4.68808
 Alpha virt. eigenvalues --    4.69801   4.69952   4.73285   4.74266   4.74838
 Alpha virt. eigenvalues --    4.77758   4.78371  23.11877  23.34865  23.34882
 Alpha virt. eigenvalues --   23.57211  23.58016  23.69591  23.69629  23.72522
 Alpha virt. eigenvalues --   23.80111  23.80184  23.84414  23.87931  23.88512
 Alpha virt. eigenvalues --   23.88768  23.96564  23.96818  23.97521  23.97659
 Alpha virt. eigenvalues --   23.97841  23.98641  23.98752  24.16863  24.17199
 Alpha virt. eigenvalues --   24.17264  24.17314  24.18115  24.18253  24.18856
          Condensed to atoms (all electrons):
               1          2          3          4          5          6
     1  C    4.857293   0.511892  -0.039553   0.457115  -0.042822  -0.053316
     2  C    0.511892   4.942708  -0.043578  -0.037397  -0.054871   0.438427
     3  C   -0.039553  -0.043578   5.015304   0.561665   0.460035  -0.034880
     4  C    0.457115  -0.037397   0.561665   5.018971  -0.032283  -0.051453
     5  C   -0.042822  -0.054871   0.460035  -0.032283   4.847826   0.508708
     6  C   -0.053316   0.438427  -0.034880  -0.051453   0.508708   5.045027
     7  C    0.000088  -0.000888   0.007316  -0.000399  -0.032709  -0.046688
     8  C   -0.000114   0.012889  -0.076220   0.007875   0.455804  -0.044238
     9  C    0.000163   0.009745   0.000157   0.000024  -0.044399  -0.055663
    10  C    0.010146  -0.057001   0.013017  -0.001451  -0.055876   0.424692
    11  C    0.000001   0.000015   0.000001  -0.000000  -0.000012  -0.001640
    12  C   -0.000005  -0.000056  -0.000046   0.000001   0.000479   0.013497
    13  C   -0.000005  -0.000149  -0.000007   0.000001   0.000034   0.012280
    14  C   -0.000470  -0.013085  -0.000166   0.000049   0.011359  -0.059863
    15  C    0.000000   0.000020  -0.000000   0.000000   0.000001  -0.000031
    16  C   -0.000000   0.000014  -0.000000  -0.000000  -0.000002  -0.000041
    17  C   -0.000005  -0.000091   0.000000  -0.000000  -0.000021  -0.001048
    18  C   -0.000532  -0.013261   0.000033  -0.000010  -0.000928  -0.020372
    19  C   -0.000005  -0.000013   0.000000  -0.000000  -0.000000  -0.000006
    20  C    0.000001  -0.000007  -0.000000   0.000000   0.000000   0.000024
    21  C    0.000169   0.009581   0.000001  -0.000003  -0.000006  -0.000663
    22  C    0.009759  -0.057616  -0.000039   0.000029  -0.000157  -0.014611
    23  C   -0.000093   0.012986   0.000002  -0.000057  -0.000006  -0.000128
    24  C    0.000074  -0.001037  -0.000000   0.000001   0.000001   0.000021
    25  C   -0.043347  -0.054608   0.000027   0.000400  -0.000069   0.012214
    26  C   -0.053522   0.433948  -0.001547   0.013867   0.012505  -0.065919
    27  C    0.455686  -0.039700   0.007948  -0.069288   0.000345   0.013746
    28  C   -0.039411  -0.043141  -0.000533   0.007918   0.000049  -0.001423
    29  H    0.006151   0.000704   0.395710  -0.040558  -0.051285   0.004772
    30  H   -0.050920   0.004474  -0.038448   0.394126   0.005273   0.001098
    31  H   -0.000001   0.000071  -0.000601   0.000013   0.005691   0.000842
    32  H    0.000052  -0.000515  -0.004409   0.001061  -0.051336   0.005200
    33  H    0.000000  -0.000001   0.000000   0.000000  -0.000002   0.000076
    34  H   -0.000000   0.000006  -0.000000   0.000000   0.000046  -0.000493
    35  H    0.000000  -0.000001  -0.000000  -0.000000   0.000000   0.000001
    36  H    0.000000  -0.000000   0.000000   0.000000  -0.000000   0.000008
    37  H   -0.000000   0.000007   0.000000   0.000000   0.000000   0.000000
    38  H    0.000000  -0.000001  -0.000000  -0.000000   0.000000   0.000000
    39  H    0.000048  -0.000518   0.000000   0.000001  -0.000000   0.000006
    40  H   -0.000001   0.000076   0.000000   0.000000   0.000000  -0.000001
    41  H   -0.051036   0.004624   0.000923  -0.004365   0.000059  -0.000471
    42  H    0.006249   0.000654   0.000014  -0.000578  -0.000003   0.000062
               7          8          9         10         11         12
     1  C    0.000088  -0.000114   0.000163   0.010146   0.000001  -0.000005
     2  C   -0.000888   0.012889   0.009745  -0.057001   0.000015  -0.000056
     3  C    0.007316  -0.076220   0.000157   0.013017   0.000001  -0.000046
     4  C   -0.000399   0.007875   0.000024  -0.001451  -0.000000   0.000001
     5  C   -0.032709   0.455804  -0.044399  -0.055876  -0.000012   0.000479
     6  C   -0.046688  -0.044238  -0.055663   0.424692  -0.001640   0.013497
     7  C    5.021218   0.567586   0.454147  -0.045883   0.007954  -0.070904
     8  C    0.567586   5.020995  -0.037625  -0.042594  -0.000491   0.007626
     9  C    0.454147  -0.037625   4.853443   0.514401  -0.038328   0.461068
    10  C   -0.045883  -0.042594   0.514401   4.965414  -0.045846  -0.034367
    11  C    0.007954  -0.000491  -0.038328  -0.045846   5.013407   0.559756
    12  C   -0.070904   0.007626   0.461068  -0.034367   0.559756   5.014801
    13  C    0.000180   0.000088  -0.041261  -0.056211   0.461943  -0.036251
    14  C    0.013066  -0.001002  -0.055411   0.445679  -0.033749  -0.048300
    15  C    0.000001  -0.000000   0.000097  -0.000834   0.007399  -0.000453
    16  C   -0.000067   0.000002   0.000044   0.012808  -0.072763   0.007971
    17  C   -0.000001   0.000000   0.000103   0.010763   0.000423  -0.000013
    18  C   -0.000007  -0.000050   0.011531  -0.056963   0.013173  -0.001623
    19  C    0.000000   0.000000   0.000001   0.000049   0.000001  -0.000000
    20  C   -0.000000   0.000000  -0.000006  -0.000148  -0.000042   0.000001
    21  C   -0.000000   0.000000  -0.000005  -0.000374  -0.000006   0.000001
    22  C    0.000006   0.000028  -0.000287  -0.013217  -0.000117   0.000040
    23  C   -0.000000  -0.000000   0.000000   0.000032   0.000000   0.000000
    24  C    0.000000  -0.000000  -0.000000  -0.000000  -0.000000   0.000000
    25  C    0.000001  -0.000005  -0.000010  -0.000337  -0.000000  -0.000000
    26  C    0.000005  -0.000101  -0.000794  -0.016343   0.000014   0.000001
    27  C    0.000001  -0.000061  -0.000002   0.000036   0.000000  -0.000000
    28  C   -0.000000   0.000002   0.000001  -0.000053  -0.000000   0.000000
    29  H    0.001108  -0.004500   0.000040  -0.000508   0.000000   0.000001
    30  H    0.000014  -0.000620  -0.000001   0.000084   0.000000   0.000000
    31  H    0.394854  -0.039719  -0.051338   0.005009   0.000953  -0.004443
    32  H   -0.041135   0.395544   0.006237   0.000639   0.000013  -0.000580
    33  H   -0.000602   0.000014   0.005720   0.000926   0.394994  -0.039274
    34  H   -0.004379   0.000998  -0.050879   0.004314  -0.038668   0.394475
    35  H    0.000000   0.000000  -0.000003   0.000062  -0.000586   0.000013
    36  H   -0.000001   0.000000   0.000057  -0.000487  -0.004441   0.000989
    37  H   -0.000000  -0.000000  -0.000000  -0.000001   0.000000  -0.000000
    38  H    0.000000   0.000000  -0.000000   0.000006   0.000000   0.000000
    39  H    0.000000   0.000000   0.000000  -0.000001  -0.000000  -0.000000
    40  H   -0.000000  -0.000000   0.000000  -0.000000   0.000000   0.000000
    41  H    0.000000  -0.000002  -0.000000   0.000008   0.000000   0.000000
    42  H    0.000000   0.000000   0.000000   0.000000  -0.000000  -0.000000
              13         14         15         16         17         18
     1  C   -0.000005  -0.000470   0.000000  -0.000000  -0.000005  -0.000532
     2  C   -0.000149  -0.013085   0.000020   0.000014  -0.000091  -0.013261
     3  C   -0.000007  -0.000166  -0.000000  -0.000000   0.000000   0.000033
     4  C    0.000001   0.000049   0.000000  -0.000000  -0.000000  -0.000010
     5  C    0.000034   0.011359   0.000001  -0.000002  -0.000021  -0.000928
     6  C    0.012280  -0.059863  -0.000031  -0.000041  -0.001048  -0.020372
     7  C    0.000180   0.013066   0.000001  -0.000067  -0.000001  -0.000007
     8  C    0.000088  -0.001002  -0.000000   0.000002   0.000000  -0.000050
     9  C   -0.041261  -0.055411   0.000097   0.000044   0.000103   0.011531
    10  C   -0.056211   0.445679  -0.000834   0.012808   0.010763  -0.056963
    11  C    0.461943  -0.033749   0.007399  -0.072763   0.000423   0.013173
    12  C   -0.036251  -0.048300  -0.000453   0.007971  -0.000013  -0.001623
    13  C    4.851615   0.513637  -0.035749   0.454190  -0.044827  -0.056481
    14  C    0.513637   4.993285  -0.043163  -0.047521  -0.056491   0.422237
    15  C   -0.035749  -0.043163   5.021607   0.568866   0.454608  -0.047110
    16  C    0.454190  -0.047521   0.568866   5.021519  -0.034395  -0.044209
    17  C   -0.044827  -0.056491   0.454608  -0.034395   4.850522   0.511767
    18  C   -0.056481   0.422237  -0.047110  -0.044209   0.511767   5.015608
    19  C   -0.000002  -0.001584   0.007972  -0.000428  -0.034469  -0.050038
    20  C    0.000333   0.013047  -0.074245   0.007300   0.461527  -0.033753
    21  C    0.000138   0.010930  -0.000045   0.000098  -0.041794  -0.054362
    22  C    0.010297  -0.056393   0.012779  -0.000800  -0.055860   0.443640
    23  C    0.000000  -0.000057   0.000002  -0.000000   0.000075  -0.001173
    24  C   -0.000001   0.000017  -0.000065   0.000001   0.000256   0.013355
    25  C   -0.000017  -0.000707  -0.000003   0.000001  -0.000019   0.011709
    26  C   -0.000986  -0.019084  -0.000064  -0.000017   0.012565  -0.062772
    27  C   -0.000000  -0.000008  -0.000000   0.000000   0.000001   0.000041
    28  C    0.000000   0.000035  -0.000000  -0.000000  -0.000006  -0.000159
    29  H   -0.000000   0.000006   0.000000   0.000000   0.000000  -0.000000
    30  H   -0.000000  -0.000001  -0.000000  -0.000000   0.000000   0.000000
    31  H    0.000058  -0.000471   0.000000  -0.000002  -0.000000   0.000009
    32  H   -0.000003   0.000060   0.000000   0.000000   0.000000   0.000001
    33  H   -0.051020   0.004414   0.001051  -0.004456   0.000041  -0.000496
    34  H    0.005462   0.001053   0.000014  -0.000613  -0.000002   0.000082
    35  H    0.006093   0.000683   0.395354  -0.040792  -0.051393   0.005230
    36  H   -0.051401   0.005175  -0.040405   0.395178   0.005946   0.000736
    37  H   -0.000001   0.000084  -0.000618   0.000014   0.005335   0.001102
    38  H    0.000039  -0.000500  -0.004497   0.001082  -0.051151   0.004547
    39  H    0.000000   0.000001   0.000000   0.000000  -0.000003   0.000060
    40  H   -0.000000   0.000009  -0.000002   0.000000   0.000059  -0.000467
    41  H    0.000000   0.000000  -0.000000  -0.000000   0.000000  -0.000001
    42  H    0.000000  -0.000000   0.000000   0.000000  -0.000000   0.000006
              19         20         21         22         23         24
     1  C   -0.000005   0.000001   0.000169   0.009759  -0.000093   0.000074
     2  C   -0.000013  -0.000007   0.009581  -0.057616   0.012986  -0.001037
     3  C    0.000000  -0.000000   0.000001  -0.000039   0.000002  -0.000000
     4  C   -0.000000   0.000000  -0.000003   0.000029  -0.000057   0.000001
     5  C   -0.000000   0.000000  -0.000006  -0.000157  -0.000006   0.000001
     6  C   -0.000006   0.000024  -0.000663  -0.014611  -0.000128   0.000021
     7  C    0.000000  -0.000000  -0.000000   0.000006  -0.000000   0.000000
     8  C    0.000000   0.000000   0.000000   0.000028  -0.000000  -0.000000
     9  C    0.000001  -0.000006  -0.000005  -0.000287   0.000000  -0.000000
    10  C    0.000049  -0.000148  -0.000374  -0.013217   0.000032  -0.000000
    11  C    0.000001  -0.000042  -0.000006  -0.000117   0.000000  -0.000000
    12  C   -0.000000   0.000001   0.000001   0.000040   0.000000   0.000000
    13  C   -0.000002   0.000333   0.000138   0.010297   0.000000  -0.000001
    14  C   -0.001584   0.013047   0.010930  -0.056393  -0.000057   0.000017
    15  C    0.007972  -0.074245  -0.000045   0.012779   0.000002  -0.000065
    16  C   -0.000428   0.007300   0.000098  -0.000800  -0.000000   0.000001
    17  C   -0.034469   0.461527  -0.041794  -0.055860   0.000075   0.000256
    18  C   -0.050038  -0.033753  -0.054362   0.443640  -0.001173   0.013355
    19  C    5.016469   0.560233   0.459606  -0.035192   0.007779  -0.069985
    20  C    0.560233   5.013547  -0.039171  -0.044634  -0.000513   0.007951
    21  C    0.459606  -0.039171   4.855139   0.513441  -0.038602   0.454519
    22  C   -0.035192  -0.044634   0.513441   4.952287  -0.042692  -0.043577
    23  C    0.007779  -0.000513  -0.038602  -0.042692   5.019871   0.565925
    24  C   -0.069985   0.007951   0.454519  -0.043577   0.565925   5.020996
    25  C    0.000464  -0.000001  -0.043982  -0.055194   0.456923  -0.031879
    26  C    0.013727  -0.001628  -0.054727   0.427916  -0.041177  -0.048749
    27  C    0.000001  -0.000000   0.000045  -0.001298   0.007721  -0.000389
    28  C   -0.000050   0.000002   0.000032   0.013033  -0.077089   0.007451
    29  H   -0.000000  -0.000000   0.000000  -0.000000   0.000000   0.000000
    30  H    0.000000   0.000000  -0.000000   0.000008  -0.000001   0.000000
    31  H    0.000000   0.000000   0.000000  -0.000000  -0.000000  -0.000000
    32  H   -0.000000  -0.000000   0.000000  -0.000001   0.000000   0.000000
    33  H    0.000000   0.000000  -0.000000   0.000006   0.000000   0.000000
    34  H   -0.000000   0.000000  -0.000000  -0.000001  -0.000000  -0.000000
    35  H    0.001018  -0.004428   0.000056  -0.000500   0.000000  -0.000000
    36  H    0.000013  -0.000592  -0.000002   0.000065   0.000000   0.000000
    37  H    0.394218  -0.038436  -0.050848   0.004333   0.000963  -0.004335
    38  H   -0.039803   0.395358   0.005913   0.000825   0.000014  -0.000593
    39  H   -0.000577   0.000013   0.006283   0.000629   0.395676  -0.041185
    40  H   -0.004422   0.000934  -0.051223   0.004858  -0.039241   0.394586
    41  H    0.000000   0.000000  -0.000001   0.000082  -0.000616   0.000014
    42  H    0.000001   0.000000   0.000043  -0.000514  -0.004466   0.001109
              25         26         27         28         29         30
     1  C   -0.043347  -0.053522   0.455686  -0.039411   0.006151  -0.050920
     2  C   -0.054608   0.433948  -0.039700  -0.043141   0.000704   0.004474
     3  C    0.000027  -0.001547   0.007948  -0.000533   0.395710  -0.038448
     4  C    0.000400   0.013867  -0.069288   0.007918  -0.040558   0.394126
     5  C   -0.000069   0.012505   0.000345   0.000049  -0.051285   0.005273
     6  C    0.012214  -0.065919   0.013746  -0.001423   0.004772   0.001098
     7  C    0.000001   0.000005   0.000001  -0.000000   0.001108   0.000014
     8  C   -0.000005  -0.000101  -0.000061   0.000002  -0.004500  -0.000620
     9  C   -0.000010  -0.000794  -0.000002   0.000001   0.000040  -0.000001
    10  C   -0.000337  -0.016343   0.000036  -0.000053  -0.000508   0.000084
    11  C   -0.000000   0.000014   0.000000  -0.000000   0.000000   0.000000
    12  C   -0.000000   0.000001  -0.000000   0.000000   0.000001   0.000000
    13  C   -0.000017  -0.000986  -0.000000   0.000000  -0.000000  -0.000000
    14  C   -0.000707  -0.019084  -0.000008   0.000035   0.000006  -0.000001
    15  C   -0.000003  -0.000064  -0.000000  -0.000000   0.000000  -0.000000
    16  C    0.000001  -0.000017   0.000000  -0.000000   0.000000  -0.000000
    17  C   -0.000019   0.012565   0.000001  -0.000006   0.000000   0.000000
    18  C    0.011709  -0.062772   0.000041  -0.000159  -0.000000   0.000000
    19  C    0.000464   0.013727   0.000001  -0.000050  -0.000000   0.000000
    20  C   -0.000001  -0.001628  -0.000000   0.000002  -0.000000   0.000000
    21  C   -0.043982  -0.054727   0.000045   0.000032   0.000000  -0.000000
    22  C   -0.055194   0.427916  -0.001298   0.013033  -0.000000   0.000008
    23  C    0.456923  -0.041177   0.007721  -0.077089   0.000000  -0.000001
    24  C   -0.031879  -0.048749  -0.000389   0.007451   0.000000   0.000000
    25  C    4.846035   0.507484  -0.031588   0.458697  -0.000003   0.000058
    26  C    0.507484   5.057465  -0.051056  -0.036872   0.000065  -0.000478
    27  C   -0.031588  -0.051056   5.020160   0.563273  -0.000582  -0.004335
    28  C    0.458697  -0.036872   0.563273   5.017246   0.000014   0.000930
    29  H   -0.000003   0.000065  -0.000582   0.000014   0.499510  -0.006691
    30  H    0.000058  -0.000478  -0.004335   0.000930  -0.006691   0.497425
    31  H    0.000000  -0.000000   0.000000   0.000000  -0.000049  -0.000001
    32  H   -0.000000   0.000006   0.000000   0.000000   0.003880  -0.000054
    33  H    0.000000   0.000000  -0.000000  -0.000000  -0.000000   0.000000
    34  H    0.000000   0.000000   0.000000   0.000000   0.000000  -0.000000
    35  H   -0.000000   0.000007   0.000000   0.000000   0.000000   0.000000
    36  H    0.000000   0.000000  -0.000000  -0.000000  -0.000000   0.000000
    37  H    0.000052  -0.000488   0.000000  -0.000001   0.000000  -0.000000
    38  H   -0.000002   0.000071   0.000000   0.000000   0.000000   0.000000
    39  H   -0.051319   0.005110   0.001087  -0.004420  -0.000000  -0.000000
    40  H    0.005515   0.000929   0.000013  -0.000608   0.000000  -0.000000
    41  H    0.005323   0.001046   0.394243  -0.038669  -0.000054   0.003963
    42  H   -0.051316   0.004922  -0.040936   0.395771  -0.000001  -0.000053
              31         32         33         34         35         36
     1  C   -0.000001   0.000052   0.000000  -0.000000   0.000000   0.000000
     2  C    0.000071  -0.000515  -0.000001   0.000006  -0.000001  -0.000000
     3  C   -0.000601  -0.004409   0.000000  -0.000000  -0.000000   0.000000
     4  C    0.000013   0.001061   0.000000   0.000000  -0.000000   0.000000
     5  C    0.005691  -0.051336  -0.000002   0.000046   0.000000  -0.000000
     6  C    0.000842   0.005200   0.000076  -0.000493   0.000001   0.000008
     7  C    0.394854  -0.041135  -0.000602  -0.004379   0.000000  -0.000001
     8  C   -0.039719   0.395544   0.000014   0.000998   0.000000   0.000000
     9  C   -0.051338   0.006237   0.005720  -0.050879  -0.000003   0.000057
    10  C    0.005009   0.000639   0.000926   0.004314   0.000062  -0.000487
    11  C    0.000953   0.000013   0.394994  -0.038668  -0.000586  -0.004441
    12  C   -0.004443  -0.000580  -0.039274   0.394475   0.000013   0.000989
    13  C    0.000058  -0.000003  -0.051020   0.005462   0.006093  -0.051401
    14  C   -0.000471   0.000060   0.004414   0.001053   0.000683   0.005175
    15  C    0.000000   0.000000   0.001051   0.000014   0.395354  -0.040405
    16  C   -0.000002   0.000000  -0.004456  -0.000613  -0.040792   0.395178
    17  C   -0.000000   0.000000   0.000041  -0.000002  -0.051393   0.005946
    18  C    0.000009   0.000001  -0.000496   0.000082   0.005230   0.000736
    19  C    0.000000  -0.000000   0.000000  -0.000000   0.001018   0.000013
    20  C    0.000000  -0.000000   0.000000   0.000000  -0.004428  -0.000592
    21  C    0.000000   0.000000  -0.000000  -0.000000   0.000056  -0.000002
    22  C   -0.000000  -0.000001   0.000006  -0.000001  -0.000500   0.000065
    23  C   -0.000000   0.000000   0.000000  -0.000000   0.000000   0.000000
    24  C   -0.000000   0.000000   0.000000  -0.000000  -0.000000   0.000000
    25  C    0.000000  -0.000000   0.000000   0.000000  -0.000000   0.000000
    26  C   -0.000000   0.000006   0.000000   0.000000   0.000007   0.000000
    27  C    0.000000   0.000000  -0.000000   0.000000   0.000000  -0.000000
    28  C    0.000000   0.000000  -0.000000   0.000000   0.000000  -0.000000
    29  H   -0.000049   0.003880  -0.000000   0.000000   0.000000  -0.000000
    30  H   -0.000001  -0.000054   0.000000  -0.000000   0.000000   0.000000
    31  H    0.498872  -0.006705  -0.000057   0.003938  -0.000000  -0.000000
    32  H   -0.006705   0.500244  -0.000001  -0.000050   0.000000  -0.000000
    33  H   -0.000057  -0.000001   0.498178  -0.006679  -0.000048   0.003913
    34  H    0.003938  -0.000050  -0.006679   0.497567  -0.000001  -0.000056
    35  H   -0.000000   0.000000  -0.000048  -0.000001   0.499961  -0.006709
    36  H   -0.000000  -0.000000   0.003913  -0.000056  -0.006709   0.499586
    37  H    0.000000   0.000000  -0.000000   0.000000  -0.000056  -0.000001
    38  H   -0.000000   0.000000   0.000000  -0.000000   0.003896  -0.000048
    39  H    0.000000  -0.000000   0.000000   0.000000  -0.000000   0.000000
    40  H    0.000000   0.000000  -0.000000   0.000000  -0.000000  -0.000000
    41  H   -0.000000  -0.000000   0.000000  -0.000000   0.000000   0.000000
    42  H    0.000000  -0.000000   0.000000   0.000000  -0.000000   0.000000
              37         38         39         40         41         42
     1  C   -0.000000   0.000000   0.000048  -0.000001  -0.051036   0.006249
     2  C    0.000007  -0.000001  -0.000518   0.000076   0.004624   0.000654
     3  C    0.000000  -0.000000   0.000000   0.000000   0.000923   0.000014
     4  C    0.000000  -0.000000   0.000001   0.000000  -0.004365  -0.000578
     5  C    0.000000   0.000000  -0.000000   0.000000   0.000059  -0.000003
     6  C    0.000000   0.000000   0.000006  -0.000001  -0.000471   0.000062
     7  C   -0.000000   0.000000   0.000000  -0.000000   0.000000   0.000000
     8  C   -0.000000   0.000000   0.000000  -0.000000  -0.000002   0.000000
     9  C   -0.000000  -0.000000   0.000000   0.000000  -0.000000   0.000000
    10  C   -0.000001   0.000006  -0.000001  -0.000000   0.000008   0.000000
    11  C    0.000000   0.000000  -0.000000   0.000000   0.000000  -0.000000
    12  C   -0.000000   0.000000  -0.000000   0.000000   0.000000  -0.000000
    13  C   -0.000001   0.000039   0.000000  -0.000000   0.000000   0.000000
    14  C    0.000084  -0.000500   0.000001   0.000009   0.000000  -0.000000
    15  C   -0.000618  -0.004497   0.000000  -0.000002  -0.000000   0.000000
    16  C    0.000014   0.001082   0.000000   0.000000  -0.000000   0.000000
    17  C    0.005335  -0.051151  -0.000003   0.000059   0.000000  -0.000000
    18  C    0.001102   0.004547   0.000060  -0.000467  -0.000001   0.000006
    19  C    0.394218  -0.039803  -0.000577  -0.004422   0.000000   0.000001
    20  C   -0.038436   0.395358   0.000013   0.000934   0.000000   0.000000
    21  C   -0.050848   0.005913   0.006283  -0.051223  -0.000001   0.000043
    22  C    0.004333   0.000825   0.000629   0.004858   0.000082  -0.000514
    23  C    0.000963   0.000014   0.395676  -0.039241  -0.000616  -0.004466
    24  C   -0.004335  -0.000593  -0.041185   0.394586   0.000014   0.001109
    25  C    0.000052  -0.000002  -0.051319   0.005515   0.005323  -0.051316
    26  C   -0.000488   0.000071   0.005110   0.000929   0.001046   0.004922
    27  C    0.000000   0.000000   0.001087   0.000013   0.394243  -0.040936
    28  C   -0.000001   0.000000  -0.004420  -0.000608  -0.038669   0.395771
    29  H    0.000000   0.000000  -0.000000   0.000000  -0.000054  -0.000001
    30  H   -0.000000   0.000000  -0.000000  -0.000000   0.003963  -0.000053
    31  H    0.000000  -0.000000   0.000000   0.000000  -0.000000   0.000000
    32  H    0.000000   0.000000  -0.000000   0.000000  -0.000000  -0.000000
    33  H   -0.000000   0.000000   0.000000  -0.000000   0.000000   0.000000
    34  H    0.000000  -0.000000   0.000000   0.000000  -0.000000   0.000000
    35  H   -0.000056   0.003896  -0.000000  -0.000000   0.000000  -0.000000
    36  H   -0.000001  -0.000048   0.000000  -0.000000   0.000000   0.000000
    37  H    0.497344  -0.006682  -0.000051   0.003952  -0.000000   0.000000
    38  H   -0.006682   0.498720  -0.000001  -0.000056   0.000000  -0.000000
    39  H   -0.000051  -0.000001   0.500235  -0.006702  -0.000053   0.003873
    40  H    0.003952  -0.000056  -0.006702   0.498354  -0.000001  -0.000050
    41  H   -0.000000   0.000000  -0.000053  -0.000001   0.497707  -0.006696
    42  H    0.000000  -0.000000   0.003873  -0.000050  -0.006696   0.499912
 Mulliken charges:
               1
     1  C    0.060272
     2  C    0.034696
     3  C   -0.222127
     4  C   -0.225271
     5  C    0.058572
     6  C   -0.027756
     7  C   -0.223881
     8  C   -0.222110
     9  C    0.059032
    10  C    0.020407
    11  C   -0.223359
    12  C   -0.224405
    13  C    0.057984
    14  C    0.003199
    15  C   -0.222486
    16  C   -0.222983
    17  C    0.057593
    18  C   -0.010100
    19  C   -0.224977
    20  C   -0.222666
    21  C    0.059822
    22  C    0.028639
    23  C   -0.222058
    24  C   -0.224478
    25  C    0.059505
    26  C   -0.035330
    27  C   -0.225103
    28  C   -0.222018
    29  H    0.192271
    30  H    0.194150
    31  H    0.193078
    32  H    0.191851
    33  H    0.193305
    34  H    0.193866
    35  H    0.192143
    36  H    0.192476
    37  H    0.194115
    38  H    0.192864
    39  H    0.191808
    40  H    0.193490
    41  H    0.193974
    42  H    0.191997
 Sum of Mulliken charges =  -0.00000
 Mulliken charges with hydrogens summed into heavy atoms:
               1
     1  C    0.060272
     2  C    0.034696
     3  C   -0.029856
     4  C   -0.031120
     5  C    0.058572
     6  C   -0.027756
     7  C   -0.030803
     8  C   -0.030259
     9  C    0.059032
    10  C    0.020407
    11  C   -0.030055
    12  C   -0.030539
    13  C    0.057984
    14  C    0.003199
    15  C   -0.030343
    16  C   -0.030507
    17  C    0.057593
    18  C   -0.010100
    19  C   -0.030862
    20  C   -0.029802
    21  C    0.059822
    22  C    0.028639
    23  C   -0.030250
    24  C   -0.030988
    25  C    0.059505
    26  C   -0.035330
    27  C   -0.031129
    28  C   -0.030021
 Electronic spatial extent (au):  <R**2>=           8363.9971
 Charge=             -0.0000 electrons
 Dipole moment (field-independent basis, Debye):
    X=             -0.0004    Y=             -0.0059    Z=              0.0002  Tot=              0.0059
 Quadrupole moment (field-independent basis, Debye-Ang):
   XX=           -136.9265   YY=           -136.9268   ZZ=           -166.4225
   XY=              0.0006   XZ=             -0.0063   YZ=              0.0231
 Traceless Quadrupole moment (field-independent basis, Debye-Ang):
   XX=              9.8321   YY=              9.8318   ZZ=            -19.6639
   XY=              0.0006   XZ=             -0.0063   YZ=              0.0231
 Octapole moment (field-independent basis, Debye-Ang**2):
  XXX=             -0.0590  YYY=              0.1967  ZZZ=             -0.2309  XYY=              0.0902
  XXY=              0.0969  XXZ=            -25.7358  XZZ=             -0.0377  YZZ=              0.0585
  YYZ=             25.6150  XYZ=            -26.1222
 Hexadecapole moment (field-independent basis, Debye-Ang**3):
 XXXX=          -5097.7241 YYYY=          -5097.6580 ZZZZ=           -569.5633 XXXY=            -44.2125
 XXXZ=              1.6038 YYYX=             44.1923 YYYZ=             -2.6202 ZZZX=             -2.3664
 ZZZY=              0.4452 XXYY=          -1700.2163 XXZZ=          -1069.9665 YYZZ=          -1069.9005
 XXYZ=             -0.8213 YYXZ=              0.6201 ZZXY=             -0.0316
 N-N= 2.331775283916D+03 E-N=-7.159771929824D+03  KE= 1.070991876596D+03
 There are a total of      954576 grid points.
 ElSum from          density=      182.0000156370
 ElSum from atomic densities=      182.0000937281
 Hirshfeld populations at iteration   1 (CA, CB, DipXYZ):
               1          2          3          4          5
     1  C    3.002581   3.002581  -0.004195  -0.008258   0.000028
     2  C    2.997503   2.997503  -0.008931  -0.017356  -0.000016
     3  C    3.022192   3.022192   0.057471  -0.025953  -0.032153
     4  C    3.022457   3.022457  -0.009066   0.069106   0.007687
     5  C    3.002252   3.002252  -0.007414  -0.002991  -0.001019
     6  C    2.999308   2.999308  -0.021033  -0.007557  -0.000326
     7  C    3.022444   3.022444   0.024718  -0.059672   0.028851
     8  C    3.022233   3.022233   0.040191   0.043929  -0.039051
     9  C    3.002457   3.002457  -0.006123   0.006752  -0.000010
    10  C    2.998041   2.998041  -0.013647   0.015290   0.000201
    11  C    3.022258   3.022258  -0.040078  -0.054297   0.019352
    12  C    3.022331   3.022331   0.069278  -0.002510   0.009802
    13  C    3.002356   3.002356  -0.001990   0.008586   0.000312
    14  C    2.998557   2.998557  -0.004441   0.020826   0.000325
    15  C    3.022305   3.022305  -0.059874  -0.008245  -0.037443
    16  C    3.022363   3.022363   0.032077  -0.052913   0.034760
    17  C    3.002303   3.002303   0.007520   0.003924  -0.000608
    18  C    2.998912   2.998912   0.018999   0.010763  -0.000344
    19  C    3.022387   3.022387  -0.048278   0.050623  -0.002689
    20  C    3.022222   3.022222  -0.014402  -0.064150  -0.025275
    21  C    3.002524   3.002524   0.009173  -0.000771   0.000068
    22  C    2.997743   2.997743   0.019918  -0.001370  -0.000092
    23  C    3.022202   3.022202   0.009296   0.059043   0.038646
    24  C    3.022480   3.022480  -0.063243  -0.020502  -0.023594
    25  C    3.002236   3.002236   0.003007  -0.007158   0.001222
    26  C    2.999460   2.999460   0.009157  -0.020640   0.000306
    27  C    3.022485   3.022485   0.057044   0.038409  -0.014532
    28  C    3.022188   3.022188  -0.055158   0.026977   0.035668
    29  H    0.477217   0.477217   0.133699   0.026649  -0.055726
    30  H    0.477151   0.477151   0.052785   0.136305  -0.017020
    31  H    0.477300   0.477300   0.113983  -0.091168   0.017276
    32  H    0.477342   0.477342   0.135194   0.032538  -0.047879
    33  H    0.477124   0.477124  -0.008352  -0.139153   0.047711
    34  H    0.477104   0.477104   0.119074  -0.077758   0.038392
    35  H    0.477353   0.477353  -0.109113  -0.090608  -0.038640
    36  H    0.477340   0.477340   0.002080  -0.143761   0.030496
    37  H    0.477112   0.477112  -0.138176   0.040865  -0.030356
    38  H    0.477156   0.477156  -0.100585  -0.094036  -0.052414
    39  H    0.477316   0.477316  -0.060734   0.123306   0.052476
    40  H    0.477259   0.477259  -0.144456   0.026246  -0.007408
    41  H    0.477193   0.477193   0.068646   0.129880   0.007283
    42  H    0.477263   0.477263  -0.064056   0.120218   0.055845
       Tot  91.000008  91.000008  -0.000035  -0.000588   0.000113

 Dip from Atomic Chgs             -0.000123  -0.001868   0.000032
         Total Dipole             -0.000158  -0.002456   0.000145

 Hirshfeld charges, spin densities, dipoles, and CM5 charges using IRadAn=      5:
              Q-H        S-H        Dx         Dy         Dz        Q-CM5   
     1  C   -0.005162   0.000000  -0.004195  -0.008258   0.000028  -0.012259
     2  C    0.004995   0.000000  -0.008931  -0.017356  -0.000016   0.004628
     3  C   -0.044384   0.000000   0.057471  -0.025953  -0.032153  -0.097521
     4  C   -0.044915   0.000000  -0.009066   0.069106   0.007687  -0.097981
     5  C   -0.004505   0.000000  -0.007414  -0.002991  -0.001019  -0.011542
     6  C    0.001384   0.000000  -0.021033  -0.007557  -0.000326   0.001020
     7  C   -0.044889   0.000000   0.024718  -0.059672   0.028851  -0.097963
     8  C   -0.044466   0.000000   0.040191   0.043929  -0.039051  -0.097588
     9  C   -0.004913   0.000000  -0.006123   0.006752  -0.000010  -0.011994
    10  C    0.003918   0.000000  -0.013647   0.015290   0.000201   0.003551
    11  C   -0.044517   0.000000  -0.040078  -0.054297   0.019352  -0.097632
    12  C   -0.044663   0.000000   0.069278  -0.002510   0.009802  -0.097758
    13  C   -0.004713   0.000000  -0.001990   0.008586   0.000312  -0.011776
    14  C    0.002886   0.000000  -0.004441   0.020826   0.000325   0.002520
    15  C   -0.044609   0.000000  -0.059874  -0.008245  -0.037443  -0.097713
    16  C   -0.044725   0.000000   0.032077  -0.052913   0.034760  -0.097813
    17  C   -0.004605   0.000000   0.007520   0.003924  -0.000608  -0.011657
    18  C    0.002176   0.000000   0.018999   0.010763  -0.000344   0.001811
    19  C   -0.044774   0.000000  -0.048278   0.050623  -0.002689  -0.097858
    20  C   -0.044443   0.000000  -0.014402  -0.064150  -0.025275  -0.097572
    21  C   -0.005047   0.000000   0.009173  -0.000771   0.000068  -0.012138
    22  C    0.004514   0.000000   0.019918  -0.001370  -0.000092   0.004147
    23  C   -0.044404   0.000000   0.009296   0.059043   0.038646  -0.097534
    24  C   -0.044959   0.000000  -0.063243  -0.020502  -0.023594  -0.098024
    25  C   -0.004471   0.000000   0.003007  -0.007158   0.001222  -0.011503
    26  C    0.001080   0.000000   0.009157  -0.020640   0.000306   0.000716
    27  C   -0.044970   0.000000   0.057044   0.038409  -0.014532  -0.098032
    28  C   -0.044375   0.000000  -0.055158   0.026977   0.035668  -0.097513
    29  H    0.045565   0.000000   0.133699   0.026649  -0.055726   0.102377
    30  H    0.045699   0.000000   0.052785   0.136305  -0.017020   0.102488
    31  H    0.045401   0.000000   0.113983  -0.091168   0.017276   0.102234
    32  H    0.045316   0.000000   0.135194   0.032538  -0.047879   0.102165
    33  H    0.045752   0.000000  -0.008352  -0.139153   0.047711   0.102539
    34  H    0.045792   0.000000   0.119074  -0.077758   0.038392   0.102573
    35  H    0.045295   0.000000  -0.109113  -0.090608  -0.038640   0.102147
    36  H    0.045321   0.000000   0.002080  -0.143761   0.030496   0.102165
    37  H    0.045776   0.000000  -0.138176   0.040865  -0.030356   0.102562
    38  H    0.045688   0.000000  -0.100585  -0.094036  -0.052414   0.102487
    39  H    0.045367   0.000000  -0.060734   0.123306   0.052476   0.102207
    40  H    0.045482   0.000000  -0.144456   0.026246  -0.007408   0.102301
    41  H    0.045614   0.000000   0.068646   0.129880   0.007283   0.102414
    42  H    0.045474   0.000000  -0.064056   0.120218   0.055845   0.102301
       Tot  -0.000016   0.000000  -0.000035  -0.000588   0.000113  -0.000016
 Hirshfeld charges with hydrogens summed into heavy atoms:
              Q-H       Q-CM5   
     1  C   -0.005162  -0.012259
     2  C    0.004995   0.004628
     3  C    0.001181   0.004857
     4  C    0.000784   0.004507
     5  C   -0.004505  -0.011542
     6  C    0.001384   0.001020
     7  C    0.000512   0.004272
     8  C    0.000849   0.004577
     9  C   -0.004913  -0.011994
    10  C    0.003918   0.003551
    11  C    0.001235   0.004907
    12  C    0.001129   0.004815
    13  C   -0.004713  -0.011776
    14  C    0.002886   0.002520
    15  C    0.000686   0.004434
    16  C    0.000596   0.004352
    17  C   -0.004605  -0.011657
    18  C    0.002176   0.001811
    19  C    0.001003   0.004703
    20  C    0.001245   0.004915
    21  C   -0.005047  -0.012138
    22  C    0.004514   0.004147
    23  C    0.000963   0.004673
    24  C    0.000523   0.004277
    25  C   -0.004471  -0.011503
    26  C    0.001080   0.000716
    27  C    0.000644   0.004382
    28  C    0.001099   0.004787
 
 EQQ=  0.00000000000     EQD=  0.00000000000     EDD= 0.165237181638E-01
 EQQ+QD+DD= 0.165237181638E-01
 
 1\1\GINC-CU13\SP\RB3LYP\6-311G(d)\C28H14\WANG\07-Jul-2025\0\\# B3LYP/6
 -311G* Pop=Hirshfeld NOSYMM\\From ../../7circulene_opt.out\\0,1\C,0,1.
 298059,2.822004,-0.06243\C,0,0.700928,1.515197,-0.021015\C,0,3.356779,
 2.001224,-0.986593\C,0,2.580528,3.049157,-0.62734\C,0,2.936653,0.68188
 9,-0.665925\C,0,1.601401,0.382947,-0.233582\C,0,3.777654,-1.471037,-0.
 033864\C,0,3.983525,-0.280737,-0.641379\C,0,2.465464,-1.847844,0.36132
 1\C,0,1.321162,-1.011555,0.125497\C,0,1.132678,-3.736179,1.001966\C,0,
 2.348867,-3.149488,0.915635\C,0,-0.010338,-3.055273,0.505572\C,0,0.013
 46,-1.657628,0.176219\C,0,-2.204308,-3.3732,-0.412861\C,0,-1.132204,-3
 .885142,0.232603\C,0,-2.313656,-1.966042,-0.587573\C,0,-1.270292,-1.05
 6917,-0.205595\C,0,-3.947039,-0.229398,-0.818592\C,0,-3.589518,-1.5181
 36,-1.022931\C,0,-3.019601,0.679417,-0.245083\C,0,-1.629192,0.353375,-
 0.08454\C,0,-2.767917,2.83766,0.778287\C,0,-3.570684,1.903391,0.220309
 \C,0,-1.356528,2.682058,0.697288\C,0,-0.737542,1.469015,0.245888\C,0,0
 .651701,3.966536,0.475104\C,0,-0.620047,3.876484,0.926464\H,0,4.351763
 ,2.145918,-1.398127\H,0,2.924504,4.074393,-0.734393\H,0,4.586416,-2.18
 132,0.114351\H,0,4.964564,0.008459,-1.007547\H,0,1.019356,-4.760741,1.
 345488\H,0,3.25683,-3.681706,1.185995\H,0,-3.038638,-3.999994,-0.71499
 3\H,0,-1.066687,-4.941802,0.476733\H,0,-4.954365,0.120791,-1.027011\H,
 0,-4.295957,-2.250034,-1.40461\H,0,-3.167448,3.766694,1.175061\H,0,-4.
 644892,2.048535,0.144654\H,0,1.202176,4.902852,0.508878\H,0,-1.137616,
 4.736175,1.342675\\Version=ES64L-G16RevB.01\HF=-1075.6580098\RMSD=7.50
 8e-09\Dipole=-0.0001466,-0.0023252,0.0000645\Quadrupole=7.3099258,7.30
 97197,-14.6196455,0.0004274,-0.0046514,0.0171775\PG=C01 [X(C28H14)]\\@


 The impersonal hand of government can
 never replace the helping hand of a neighbor.
                        -- Hubert H. Humphrey
 Job cpu time:       0 days  0 hours 17 minutes 27.6 seconds.
 Elapsed time:       0 days  0 hours  0 minutes 37.9 seconds.
 File lengths (MBytes):  RWF=    166 Int=      0 D2E=      0 Chk=     18 Scr=      1
 Normal termination of Gaussian 16 at Mon Jul  7 21:16:49 2025.
