 Entering Gaussian System, Link 0=g16
 Initial command:
 /opt/software/g16/l1.exe "/tmp/7helicene_sgp-27962.tmp/Gau-23862.inp" -scrdir="/tmp/7helicene_sgp-27962.tmp/"
 Entering Link 1 = /opt/software/g16/l1.exe PID=     23863.
  
 Copyright (c) 1988-2017, Gaussian, Inc.  All Rights Reserved.
  
 This is part of the Gaussian(R) 16 program.  It is based on
 the Gaussian(R) 09 system (copyright 2009, Gaussian, Inc.),
 the Gaussian(R) 03 system (copyright 2003, Gaussian, Inc.),
 the Gaussian(R) 98 system (copyright 1998, Gaussian, Inc.),
 the Gaussian(R) 94 system (copyright 1995, Gaussian, Inc.),
 the Gaussian 92(TM) system (copyright 1992, Gaussian, Inc.),
 the Gaussian 90(TM) system (copyright 1990, Gaussian, Inc.),
 the Gaussian 88(TM) system (copyright 1988, Gaussian, Inc.),
 the Gaussian 86(TM) system (copyright 1986, Carnegie Mellon
 University), and the Gaussian 82(TM) system (copyright 1983,
 Carnegie Mellon University). Gaussian is a federally registered
 trademark of Gaussian, Inc.
  
 This software contains proprietary and confidential information,
 including trade secrets, belonging to Gaussian, Inc.
  
 This software is provided under written license and may be
 used, copied, transmitted, or stored only in accord with that
 written license.
  
 The following legend is applicable only to US Government
 contracts under FAR:
  
                    RESTRICTED RIGHTS LEGEND
  
 Use, reproduction and disclosure by the US Government is
 subject to restrictions as set forth in subparagraphs (a)
 and (c) of the Commercial Computer Software - Restricted
 Rights clause in FAR 52.227-19.
  
 Gaussian, Inc.
 340 Quinnipiac St., Bldg. 40, Wallingford CT 06492
  
  
 ---------------------------------------------------------------
 Warning -- This program may not be used in any manner that
 competes with the business of Gaussian, Inc. or will provide
 assistance to any competitor of Gaussian, Inc.  The licensee
 of this program is prohibited from giving any competitor of
 Gaussian, Inc. access to this program.  By using this program,
 the user acknowledges that Gaussian, Inc. is engaged in the
 business of creating and licensing software in the field of
 computational chemistry and represents and warrants to the
 licensee that it is not a competitor of Gaussian, Inc. and that
 it will not use this program in any manner prohibited above.
 ---------------------------------------------------------------
  

 Cite this work as:
 Gaussian 16, Revision B.01,
 M. J. Frisch, G. W. Trucks, H. B. Schlegel, G. E. Scuseria, 
 M. A. Robb, J. R. Cheeseman, G. Scalmani, V. Barone, 
 G. A. Petersson, H. Nakatsuji, X. Li, M. Caricato, A. V. Marenich, 
 J. Bloino, B. G. Janesko, R. Gomperts, B. Mennucci, H. P. Hratchian, 
 J. V. Ortiz, A. F. Izmaylov, J. L. Sonnenberg, D. Williams-Young, 
 F. Ding, F. Lipparini, F. Egidi, J. Goings, B. Peng, A. Petrone, 
 T. Henderson, D. Ranasinghe, V. G. Zakrzewski, J. Gao, N. Rega, 
 G. Zheng, W. Liang, M. Hada, M. Ehara, K. Toyota, R. Fukuda, 
 J. Hasegawa, M. Ishida, T. Nakajima, Y. Honda, O. Kitao, H. Nakai, 
 T. Vreven, K. Throssell, J. A. Montgomery, Jr., J. E. Peralta, 
 F. Ogliaro, M. J. Bearpark, J. J. Heyd, E. N. Brothers, K. N. Kudin, 
 V. N. Staroverov, T. A. Keith, R. Kobayashi, J. Normand, 
 K. Raghavachari, A. P. Rendell, J. C. Burant, S. S. Iyengar, 
 J. Tomasi, M. Cossi, J. M. Millam, M. Klene, C. Adamo, R. Cammi, 
 J. W. Ochterski, R. L. Martin, K. Morokuma, O. Farkas, 
 J. B. Foresman, and D. J. Fox, Gaussian, Inc., Wallingford CT, 2016.
 
 ******************************************
 Gaussian 16:  ES64L-G16RevB.01 20-Dec-2017
                 6-Jul-2025 
 ******************************************
 %nproc=28
 Will use up to   28 processors via shared memory.
 ------------------------------------
 # B3LYP/6-311G* Pop=Hirshfeld NOSYMM
 ------------------------------------
 1/38=1,172=1/1;
 2/12=2,15=1,17=6,18=5,40=1/2;
 3/5=4,6=6,7=1,11=2,25=1,30=1,74=-5/1,2,3;
 4//1;
 5/5=2,38=5/2;
 6/7=2,8=2,9=2,10=2,28=1,79=1/1;
 99/5=1,9=1/99;
 ----------------------------
 From ../../7helicene_opt.out
 ----------------------------
 Symbolic Z-matrix:
 Charge =  0 Multiplicity = 1
 6                     3.51105  -0.48198   1.67576 
 6                     2.8166   -0.28883   2.83394 
 6                     2.82033  -0.77588   0.46362 
 6                     1.3954   -0.18102   2.81549 
 6                     1.39907  -0.78878   0.43279 
 6                     0.6892   -0.23887   1.57617 
 6                     3.57214  -1.09377  -0.71171 
 6                     2.95548  -1.49584  -1.85657 
 6                     1.54635  -1.73352  -1.86974 
 6                     0.76363  -1.43278  -0.70993 
 1                     4.59811  -0.49465   1.67201 
 1                     3.33265  -0.18058   3.78464 
 1                     4.6548   -1.003    -0.6668 
 1                     3.53088  -1.71306  -2.75315 
 6                     0.93676  -2.33987  -2.99513 
 6                    -0.57777  -1.89289  -0.69973 
 6                    -1.14074  -2.51516  -1.7969 
 6                    -0.3896   -2.71459  -2.97177 
 1                     1.54933  -2.53385  -3.87264 
 1                    -1.17004  -1.78353   0.19857 
 1                    -2.16925  -2.86189  -1.74546 
 1                    -0.84289  -3.18978  -3.8375 
 6                    -0.68118   0.03242   4.04058 
 6                     0.68117  -0.03289   4.04052 
 6                    -1.39551   0.18075   2.81564 
 6                    -0.68941   0.2386    1.57626 
 6                    -2.81669   0.28886   2.83423 
 6                    -3.5112    0.48242   1.67616 
 6                    -2.82052   0.77636   0.464 
 6                    -1.39927   0.78881   0.43302 
 1                    -1.24161   0.03728   4.97205 
 1                     1.24168  -0.03778   4.97194 
 1                    -3.33266   0.18062   3.78497 
 1                    -4.59826   0.49539   1.67252 
 6                    -3.57235   1.09472  -0.7112 
 6                    -0.7637    1.43265  -0.70971 
 6                    -1.54644   1.73389  -1.86936 
 6                    -2.95566   1.49679  -1.85606 
 1                    -4.65504   1.00433  -0.66619 
 1                    -3.53109   1.71437  -2.75254 
 6                    -0.93671   2.34012  -2.99475 
 6                     0.57796   1.89198  -0.69966 
 6                     0.38984   2.71417  -2.97153 
 6                     1.14108   2.51413  -1.79682 
 1                    -1.54931   2.53452  -3.87215 
 1                     0.84324   3.18926  -3.83726 
 1                     2.1698    2.86028  -1.7455 
 1                     1.17033   1.7821    0.19852 
 
                          Input orientation:                          
 ---------------------------------------------------------------------
 Center     Atomic      Atomic             Coordinates (Angstroms)
 Number     Number       Type             X           Y           Z
 ---------------------------------------------------------------------
      1          6           0        3.511054   -0.481982    1.675764
      2          6           0        2.816601   -0.288831    2.833943
      3          6           0        2.820331   -0.775883    0.463623
      4          6           0        1.395398   -0.181020    2.815494
      5          6           0        1.399071   -0.788779    0.432785
      6          6           0        0.689195   -0.238866    1.576174
      7          6           0        3.572143   -1.093770   -0.711707
      8          6           0        2.955477   -1.495842   -1.856573
      9          6           0        1.546349   -1.733518   -1.869737
     10          6           0        0.763629   -1.432780   -0.709932
     11          1           0        4.598109   -0.494648    1.672014
     12          1           0        3.332645   -0.180583    3.784642
     13          1           0        4.654804   -1.003004   -0.666797
     14          1           0        3.530879   -1.713064   -2.753153
     15          6           0        0.936757   -2.339867   -2.995131
     16          6           0       -0.577766   -1.892887   -0.699732
     17          6           0       -1.140736   -2.515157   -1.796900
     18          6           0       -0.389597   -2.714593   -2.971768
     19          1           0        1.549333   -2.533845   -3.872638
     20          1           0       -1.170035   -1.783534    0.198568
     21          1           0       -2.169253   -2.861890   -1.745457
     22          1           0       -0.842890   -3.189784   -3.837501
     23          6           0       -0.681175    0.032423    4.040582
     24          6           0        0.681165   -0.032892    4.040519
     25          6           0       -1.395505    0.180746    2.815638
     26          6           0       -0.689410    0.238598    1.576258
     27          6           0       -2.816687    0.288862    2.834233
     28          6           0       -3.511204    0.482421    1.676158
     29          6           0       -2.820522    0.776360    0.464000
     30          6           0       -1.399265    0.788809    0.433016
     31          1           0       -1.241607    0.037284    4.972053
     32          1           0        1.241683   -0.037783    4.971938
     33          1           0       -3.332662    0.180615    3.784969
     34          1           0       -4.598256    0.495394    1.672522
     35          6           0       -3.572348    1.094721   -0.711196
     36          6           0       -0.763700    1.432645   -0.709707
     37          6           0       -1.546438    1.733891   -1.869363
     38          6           0       -2.955663    1.496787   -1.856059
     39          1           0       -4.655036    1.004330   -0.666185
     40          1           0       -3.531086    1.714366   -2.752539
     41          6           0       -0.936710    2.340117   -2.994749
     42          6           0        0.577957    1.891980   -0.699659
     43          6           0        0.389839    2.714171   -2.971525
     44          6           0        1.141076    2.514128   -1.796820
     45          1           0       -1.549312    2.534515   -3.872145
     46          1           0        0.843244    3.189256   -3.837257
     47          1           0        2.169795    2.860283   -1.745501
     48          1           0        1.170328    1.782095    0.198517
 ---------------------------------------------------------------------
                    Distance matrix (angstroms):
                    1          2          3          4          5
     1  C    0.000000
     2  C    1.364167   0.000000
     3  C    1.425750   2.419845   0.000000
     4  C    2.421892   1.425406   2.813466   0.000000
     5  C    2.469735   2.832825   1.421653   2.459001   0.000000
     6  C    2.834063   2.471909   2.463310   1.427579   1.453845
     7  C    2.465367   3.713543   1.430970   4.244111   2.474899
     8  C    3.716717   4.845318   2.433088   5.098119   2.857184
     9  C    4.242285   5.081857   2.825715   4.938059   2.493157
    10  C    3.760839   4.252336   2.457391   3.794030   1.457507
    11  H    1.087135   2.136869   2.167901   3.415153   3.443261
    12  H    2.137765   1.087128   3.412626   2.166143   3.917085
    13  H    2.658424   4.017986   2.166731   4.840014   3.443076
    14  H    4.596875   5.809843   3.425031   6.157700   3.943236
    15  C    5.647655   6.458999   4.237555   6.215652   3.790807
    16  C    4.934783   5.155733   3.761403   4.379575   2.531706
    17  C    6.150800   6.485503   4.881095   5.757981   3.795062
    18  C    6.465229   7.061891   5.085680   6.564876   4.301055
    19  H    6.232436   7.185004   4.848611   7.091586   4.648064
    20  H    5.078261   5.007255   4.124153   3.999725   2.764905
    21  H    7.045183   7.242256   5.841867   6.379348   4.666419
    22  H    7.528952   8.143437   6.143759   7.637076   5.387630
    23  C    4.840636   3.713976   5.070359   2.420445   4.244761
    24  C    3.715107   2.466053   4.233468   1.425748   3.755329
    25  C    5.080634   4.238240   4.921421   2.814252   3.798371
    26  C    4.262984   3.761923   3.819085   2.461343   2.593219
    27  C    6.478932   5.662832   6.207209   4.238254   4.969998
    28  C    7.088172   6.478921   6.568250   5.080648   5.222330
    29  C    6.568154   6.207126   5.850528   4.921390   4.500622
    30  C    5.222123   4.969837   4.500465   3.798277   3.212393
    31  H    5.807146   4.598578   6.122624   3.413532   5.316062
    32  H    4.026428   2.667286   4.833407   2.166655   4.603550
    33  H    7.191956   6.240053   7.057305   4.839960   5.879299
    34  H    8.167997   7.546126   7.623189   6.139040   6.257314
    35  C    7.639251   7.436457   6.763557   6.224432   5.437947
    36  C    5.256405   5.323485   4.370306   4.437641   3.304178
    37  C    6.561726   6.726708   5.550717   5.853987   4.509964
    38  C    7.629399   7.648763   6.626316   6.600771   5.424604
    39  H    8.624319   8.351558   7.767029   7.080600   6.408993
    40  H    8.603810   8.689920   7.542250   7.672400   6.381103
    41  C    7.039925   7.414335   5.982069   6.749354   5.195561
    42  C    4.458855   4.717394   3.674093   4.161951   3.023760
    43  C    6.446291   6.972134   5.466993   6.548501   4.987839
    44  C    5.162588   5.666386   4.330551   5.348078   3.993356
    45  H    8.092333   8.485523   6.989378   7.795509   6.186248
    46  H    7.140630   7.777926   6.174850   7.478150   5.862334
    47  H    4.967370   5.595229   4.304083   5.536415   4.319097
    48  H    3.575934   3.734223   3.055494   3.279184   2.591640
                    6          7          8          9         10
     6  C    0.000000
     7  C    3.778445   0.000000
     8  C    4.301136   1.361123   0.000000
     9  C    3.852661   2.419536   1.429092   0.000000
    10  C    2.580165   2.828901   2.474462   1.431168   0.000000
    11  H    3.918446   2.663396   4.018900   4.836532   4.610531
    12  H    3.445077   4.594391   5.804780   6.129801   5.326259
    13  H    4.619619   1.087387   2.132175   3.412215   3.915075
    14  H    5.384376   2.133713   1.087257   2.172372   3.451229
    15  C    5.037095   3.702977   2.466561   1.416253   2.464734
    16  C    3.085567   4.226166   3.738948   2.430262   1.418148
    17  C    4.461813   5.040755   4.221555   2.799409   2.445331
    18  C    5.289309   4.840488   3.730755   2.434105   2.844095
    19  H    5.974640   4.019585   2.668185   2.156883   3.439823
    20  H    2.782181   4.877769   4.618032   3.414547   2.165054
    21  H    5.107271   6.095778   5.304837   3.885147   3.422932
    22  H    6.353194   5.801412   4.606637   3.420712   3.930605
    23  C    2.832811   6.476363   7.094876   6.558375   5.177032
    24  C    2.472951   5.662762   6.487558   6.210620   4.953107
    25  C    2.461365   6.224474   6.600875   5.854199   4.437901
    26  C    1.458946   5.017053   5.298850   4.556615   3.183000
    27  C    3.761970   7.436566   7.648968   6.727068   5.323891
    28  C    4.263051   7.639377   7.629658   6.562210   5.256959
    29  C    3.819127   6.763567   6.626472   5.551160   4.370876
    30  C    2.593182   5.437775   5.424539   4.510149   3.304527
    31  H    3.916152   7.533698   8.160645   7.597271   6.202178
    32  H    3.446286   6.232975   7.189686   7.055271   5.870111
    33  H    4.607610   8.337894   8.612676   7.710016   6.291802
    34  H    5.339060   8.658257   8.571955   7.434502   6.176063
    35  C    5.017097   7.472165   7.115856   5.961729   5.018860
    36  C    3.182783   5.018198   4.870689   4.087369   3.247059
    37  C    4.556484   5.961183   5.540630   4.646316   4.087603
    38  C    5.298840   7.115671   6.625512   5.541044   4.871253
    39  H    5.927437   8.490617   8.098629   6.884877   5.941662
    40  H    6.353239   7.906104   7.292715   6.200612   5.702749
    41  C    5.494366   6.110124   5.582038   4.901605   4.727187
    42  C    3.119663   4.228475   4.297486   3.930789   3.329956
    43  C    5.430618   5.452912   5.054684   4.725822   4.738325
    44  C    4.377244   4.483803   4.401759   4.267559   4.111189
    45  H    6.510510   7.027241   6.371768   5.639934   5.575726
    46  H    6.409445   5.963243   5.507702   5.347822   5.581193
    47  H    4.778119   4.320862   4.427805   4.637578   4.634662
    48  H    2.492732   3.855882   4.260871   4.096169   3.365428
                   11         12         13         14         15
    11  H    0.000000
    12  H    2.482586   0.000000
    13  H    2.394092   4.715908   0.000000
    14  H    4.712284   6.717928   2.473919   0.000000
    15  C    6.212292   7.507870   4.586089   2.679721   0.000000
    16  C    5.862588   6.191358   5.307802   4.596720   2.786113
    17  C    7.003582   7.524293   6.095246   4.835469   2.404675
    18  C    7.167292   8.119444   5.804172   4.052281   1.378470
    19  H    6.648047   8.206825   4.718563   2.419391   1.087610
    20  H    6.091285   5.975241   5.940272   5.551235   3.866237
    21  H    7.942300   8.248775   7.154489   5.901420   3.388435
    22  H    8.198962   9.197143   6.712675   4.741979   2.144549
    23  C    5.810229   4.027608   7.190563   8.181868   7.599126
    24  C    4.600596   2.667889   6.236165   7.556310   7.408632
    25  C    6.139010   4.839931   7.080597   7.672497   6.749665
    26  C    5.338977   4.607559   5.927351   6.353237   5.494588
    27  C    7.546114   6.240027   8.351605   8.690120   7.414853
    28  C    8.167964   7.191909   8.624362   8.604062   7.040640
    29  C    7.623047   7.057186   7.766939   7.542387   5.982776
    30  C    6.257066   5.879123   6.408739   6.381016   5.195941
    31  H    6.728707   4.730876   8.224749   9.247656   8.594890
    32  H    4.729040   2.408773   6.661560   8.229460   8.298600
    33  H    8.235150   6.675087   9.220563   9.666502   8.399436
    34  H    9.249503   8.235119   9.661094   9.515604   7.775735
    35  C    8.658069   8.337739   8.490492   7.906268   6.111038
    36  C    6.175439   6.291400   5.940910   5.702154   4.727215
    37  C    7.433922   7.709633   6.884197   6.200140   4.901950
    38  C    8.571615   8.612427   8.098303   7.292678   5.582861
    39  H    9.660994   9.220462   9.523787   8.874056   6.919233
    40  H    9.515263   9.666249   8.873737   7.849753   6.037986
    41  C    7.774882   8.398897   6.918153   6.037052   5.041044
    42  C    5.242370   5.656216   5.000269   5.092438   4.827676
    43  C    7.040491   7.917418   6.108935   5.432700   5.083599
    44  C    5.747749   6.573976   5.098378   4.949231   5.003895
    45  H    8.815005   9.477956   7.828113   6.715833   5.541597
    46  H    7.617232   8.697487   6.492677   5.694858   5.593668
    47  H    5.369514   6.417287   4.718459   4.876824   5.488490
    48  H    4.370862   4.624718   4.543910   5.147882   5.219628
                   16         17         18         19         20
    16  C    0.000000
    17  C    1.381279   0.000000
    18  C    2.423377   1.408652   0.000000
    19  H    3.873333   3.397868   2.145620   0.000000
    20  H    1.081519   2.125564   3.395141   4.953044   0.000000
    21  H    2.136665   1.086608   2.166267   4.296556   2.437319
    22  H    3.405558   2.169766   1.086635   2.480770   4.286539
    23  C    5.117430   6.385731   7.536854   8.612778   4.277588
    24  C    5.245424   6.599729   7.583549   8.344252   4.610019
    25  C    4.162509   5.348673   6.548962   7.795775   3.279983
    26  C    3.120228   4.377791   5.431000   6.510674   2.493601
    27  C    4.718231   5.667339   6.972887   8.485984   3.735374
    28  C    4.460045   5.163983   6.447367   8.092962   3.577555
    29  C    3.675474   4.332140   5.468149   6.989958   3.057388
    30  C    3.024809   3.994440   4.988568   6.186511   2.593157
    31  H    6.027884   7.234905   8.450032   9.624376   5.109468
    32  H    6.238561   7.591474   8.539839   9.195189   5.625753
    33  H    5.656978   6.574875   7.918166   9.478455   4.625701
    34  H    5.243645   5.749326   7.041751   8.815778   4.372500
    35  C    4.230066   4.485834   5.454444   7.028003   3.857866
    36  C    3.330741   4.112090   4.738824   5.575598   3.366583
    37  C    3.931905   4.268987   4.726795   5.640078   4.097596
    38  C    4.298997   4.403766   5.056206   6.372407   4.262683
    39  H    5.001912   5.100550   6.110652   7.829062   4.545901
    40  H    5.093956   4.951352   5.434399   6.716590   5.149650
    41  C    4.828485   5.005013   5.084285   5.541354   5.220748
    42  C    3.957387   4.855996   5.226773   5.531663   4.167936
    43  C    5.227072   5.573892   5.484432   5.449597   5.719445
    44  C    4.855904   5.522714   5.573418   5.473365   5.271879
    45  H    5.532630   5.474739   5.450574   5.940528   5.946436
    46  H    6.139341   6.374917   6.092980   5.766602   6.713406
    47  H    5.588859   6.313289   6.255674   5.831492   6.041432
    48  H    4.167514   5.271535   5.718765   5.945190   4.265092
                   21         22         23         24         25
    21  H    0.000000
    22  H    2.498680   0.000000
    23  C    6.638499   8.513105   0.000000
    24  C    7.043126   8.622755   1.363905   0.000000
    25  C    5.537139   7.478644   1.425747   2.420441   0.000000
    26  C    4.778781   6.409848   2.472947   2.832802   1.427578
    27  C    5.596425   7.778746   2.466060   3.713976   1.425410
    28  C    4.969175   7.141808   3.715113   4.840631   2.421901
    29  C    4.306125   6.176102   4.233460   5.070324   2.813473
    30  C    4.320443   5.863111   3.755304   4.244698   2.458992
    31  H    7.375004   9.390484   1.087081   2.137693   2.166654
    32  H    8.045711   9.585759   2.137694   1.087081   3.413524
    33  H    6.418409   8.698310   2.667898   4.027617   2.166144
    34  H    5.371591   7.618639   4.600606   5.810231   3.415162
    35  C    4.323557   5.964957   5.662751   6.476317   4.244120
    36  C    4.635881   5.581775   4.953047   5.176879   3.794007
    37  C    4.639445   5.348937   6.210565   6.558235   4.938044
    38  C    4.430433   5.509435   6.487529   7.094792   5.098118
    39  H    4.721398   6.494636   6.236171   7.190545   4.840034
    40  H    4.879644   5.696861   7.556283   8.181785   6.157702
    41  C    5.490061   5.594536   7.408551   7.598927   6.215623
    42  C    5.589288   6.139152   5.245307   5.117135   4.379519
    43  C    6.256569   6.093129   7.583435   7.536577   6.564827
    44  C    6.313675   6.374568   6.599600   6.385402   5.757924
    45  H    5.833379   5.767827   8.344182   8.612599   7.091567
    46  H    7.075813   6.598121   8.622633   8.512806   7.637024
    47  H    7.181267   7.075030   7.042981   6.638110   6.379285
    48  H    6.041393   6.712829   4.609868   4.277200   3.999642
                   26         27         28         29         30
    26  C    0.000000
    27  C    2.471909   0.000000
    28  C    2.834070   1.364169   0.000000
    29  C    2.463320   2.419850   1.425752   0.000000
    30  C    1.453832   2.832821   2.469729   1.421649   0.000000
    31  H    3.446284   2.667291   4.026430   4.833399   4.603532
    32  H    3.916140   4.598570   5.807126   6.122568   5.315983
    33  H    3.445076   1.087128   2.137767   3.412629   3.917080
    34  H    3.918455   2.136871   1.087135   2.167903   3.443256
    35  C    3.778455   3.713556   2.465382   1.430972   2.474893
    36  C    2.580098   4.252353   3.760858   2.457400   1.457492
    37  C    3.852623   5.081875   4.242311   2.825728   2.493148
    38  C    4.301133   4.845331   3.716735   2.433095   2.857179
    39  H    4.619641   4.018003   2.658442   2.166733   3.443071
    40  H    5.384375   5.809858   4.596895   3.425037   3.943232
    41  C    5.037027   6.459024   5.647692   4.237573   3.790790
    42  C    3.085399   5.155772   4.934835   3.761432   2.531669
    43  C    5.289194   7.061923   6.465277   5.085702   4.301024
    44  C    4.461656   6.485549   6.150863   4.881127   3.795027
    45  H    5.974593   7.185033   6.232478   4.848633   4.648055
    46  H    6.353074   8.143473   7.529005   6.143782   5.387599
    47  H    5.107090   7.242318   7.045263   5.841908   4.666383
    48  H    2.781938   5.007298   5.078318   4.124181   2.764854
                   31         32         33         34         35
    31  H    0.000000
    32  H    2.484424   0.000000
    33  H    2.408780   4.730880   0.000000
    34  H    4.729045   6.728693   2.482589   0.000000
    35  C    6.232964   7.533623   4.594403   2.663417   0.000000
    36  C    5.870079   6.202000   5.326280   4.610561   2.828904
    37  C    7.055237   7.597095   6.129823   4.836571   2.419545
    38  C    7.189663   8.160525   5.804794   4.018928   1.361128
    39  H    6.661562   8.224702   4.715925   2.394116   1.087387
    40  H    8.229437   9.247535   6.717944   4.712315   2.133716
    41  C    8.298550   8.594644   7.507903   6.212354   3.703001
    42  C    6.238512   6.027564   6.191413   5.862668   4.226202
    43  C    8.539776   8.449704   8.119491   7.167373   4.840520
    44  C    7.591415   7.234532   7.524359   7.003681   5.040800
    45  H    9.195145   9.624145   8.206862   6.648113   4.019612
    46  H    9.585691   9.390125   9.197197   8.199054   5.801447
    47  H    8.045652   7.374562   8.248864   7.942424   6.095835
    48  H    5.625695   5.109070   5.975307   6.091375   4.877811
                   36         37         38         39         40
    36  C    0.000000
    37  C    1.431164   0.000000
    38  C    2.474457   1.429094   0.000000
    39  H    3.915079   3.412225   2.132178   0.000000
    40  H    3.451225   2.172374   1.087257   2.473922   0.000000
    41  C    2.464722   1.416253   2.466575   4.586119   2.679742
    42  C    1.418144   2.430279   3.738972   5.307849   4.596749
    43  C    2.844078   2.434107   3.730774   5.804215   4.052310
    44  C    2.445320   2.799422   4.221583   6.095305   4.835506
    45  H    3.439814   2.156883   2.668203   4.718598   2.419419
    46  H    3.930588   3.420713   4.606657   6.712725   4.742012
    47  H    3.422925   3.885163   5.304872   7.154565   5.901466
    48  H    2.165052   3.414567   4.618061   5.940328   5.551271
                   41         42         43         44         45
    41  C    0.000000
    42  C    2.786123   0.000000
    43  C    1.378473   2.423378   0.000000
    44  C    2.404685   1.381280   1.408654   0.000000
    45  H    1.087610   3.873344   2.145623   3.397878   0.000000
    46  H    2.144550   3.405558   1.086634   2.169766   2.480771
    47  H    3.388446   2.136667   2.166270   1.086609   4.296568
    48  H    3.866257   1.081526   3.395158   2.125582   4.953066
                   46         47         48
    46  H    0.000000
    47  H    2.498680   0.000000
    48  H    4.286555   2.437341   0.000000
 Symmetry turned off by external request.
 Stoichiometry    C30H18
 Framework group  C1[X(C30H18)]
 Deg. of freedom   138
 Full point group                 C1      NOp   1
 Rotational constants (GHZ):           0.2059414           0.2041267           0.1423961
 Standard basis: 6-311G(d) (5D, 7F)
   594 basis functions,  1050 primitive gaussians,   624 cartesian basis functions
    99 alpha electrons       99 beta electrons
       nuclear repulsion energy      2718.5320998575 Hartrees.
 NAtoms=   48 NActive=   48 NUniq=   48 SFac= 1.00D+00 NAtFMM=   60 NAOKFM=F Big=F
 Integral buffers will be    131072 words long.
 Raffenetti 2 integral format.
 Two-electron integral symmetry is turned off.
 One-electron integrals computed using PRISM.
 NBasis=   594 RedAO= T EigKep=  5.54D-05  NBF=   594
 NBsUse=   594 1.00D-06 EigRej= -1.00D+00 NBFU=   594
 ExpMin= 1.03D-01 ExpMax= 4.56D+03 ExpMxC= 6.82D+02 IAcc=3 IRadAn=         5 AccDes= 0.00D+00
 Harris functional with IExCor=  402 and IRadAn=       5 diagonalized for initial guess.
 HarFok:  IExCor=  402 AccDes= 0.00D+00 IRadAn=         5 IDoV= 1 UseB2=F ITyADJ=14
 ICtDFT=  3500011 ScaDFX=  1.000000  1.000000  1.000000  1.000000
 FoFCou: FMM=F IPFlag=           0 FMFlag=      100000 FMFlg1=           0
         NFxFlg=           0 DoJE=T BraDBF=F KetDBF=T FulRan=T
         wScrn=  0.000000 ICntrl=       500 IOpCl=  0 I1Cent=   200000004 NGrid=           0
         NMat0=    1 NMatS0=      1 NMatT0=    0 NMatD0=    1 NMtDS0=    0 NMtDT0=    0
 Symmetry not used in FoFCou.
 Requested convergence on RMS density matrix=1.00D-08 within 128 cycles.
 Requested convergence on MAX density matrix=1.00D-06.
 Requested convergence on             energy=1.00D-06.
 No special actions if energy rises.
 Integral accuracy reduced to 1.0D-05 until final iterations.
 Initial convergence to 1.0D-05 achieved.  Increase integral accuracy.
 SCF Done:  E(RB3LYP) =  -1154.30062116     A.U. after   14 cycles
            NFock= 14  Conv=0.89D-08     -V/T= 2.0044

 **********************************************************************

            Population analysis using the SCF Density.

 **********************************************************************

 Alpha  occ. eigenvalues --  -10.19614 -10.19579 -10.19275 -10.19274 -10.18898
 Alpha  occ. eigenvalues --  -10.18897 -10.18654 -10.18654 -10.18553 -10.18551
 Alpha  occ. eigenvalues --  -10.18209 -10.18209 -10.17872 -10.17828 -10.17827
 Alpha  occ. eigenvalues --  -10.17807 -10.17757 -10.17757 -10.17544 -10.17544
 Alpha  occ. eigenvalues --  -10.17475 -10.17475 -10.17182 -10.17182 -10.17117
 Alpha  occ. eigenvalues --  -10.17117 -10.16982 -10.16982 -10.16808 -10.16807
 Alpha  occ. eigenvalues --   -0.89739  -0.87985  -0.86577  -0.84905  -0.82956
 Alpha  occ. eigenvalues --   -0.81010  -0.79588  -0.78897  -0.76980  -0.75629
 Alpha  occ. eigenvalues --   -0.74789  -0.73516  -0.72670  -0.71573  -0.70913
 Alpha  occ. eigenvalues --   -0.64763  -0.64493  -0.62489  -0.62195  -0.61524
 Alpha  occ. eigenvalues --   -0.60826  -0.59781  -0.57413  -0.56153  -0.54599
 Alpha  occ. eigenvalues --   -0.52997  -0.52403  -0.50950  -0.50905  -0.49633
 Alpha  occ. eigenvalues --   -0.48646  -0.48175  -0.46864  -0.45663  -0.45399
 Alpha  occ. eigenvalues --   -0.44621  -0.43522  -0.43358  -0.43090  -0.42972
 Alpha  occ. eigenvalues --   -0.42419  -0.41868  -0.41450  -0.40776  -0.40626
 Alpha  occ. eigenvalues --   -0.40058  -0.39492  -0.38677  -0.37803  -0.37278
 Alpha  occ. eigenvalues --   -0.36972  -0.36570  -0.35976  -0.35472  -0.34367
 Alpha  occ. eigenvalues --   -0.33799  -0.33797  -0.32748  -0.32342  -0.31172
 Alpha  occ. eigenvalues --   -0.29360  -0.29227  -0.28746  -0.25939  -0.24975
 Alpha  occ. eigenvalues --   -0.23237  -0.21662  -0.20813  -0.20553
 Alpha virt. eigenvalues --   -0.06538  -0.06294  -0.04110  -0.02935  -0.00791
 Alpha virt. eigenvalues --    0.00449   0.02481   0.03062   0.03681   0.04615
 Alpha virt. eigenvalues --    0.04970   0.05284   0.05766   0.06647   0.06682
 Alpha virt. eigenvalues --    0.06957   0.07711   0.08620   0.09056   0.09610
 Alpha virt. eigenvalues --    0.09843   0.10648   0.10992   0.11893   0.12053
 Alpha virt. eigenvalues --    0.13499   0.13857   0.14765   0.15084   0.15567
 Alpha virt. eigenvalues --    0.16617   0.18908   0.19442   0.19861   0.21294
 Alpha virt. eigenvalues --    0.23264   0.23915   0.24315   0.24803   0.24991
 Alpha virt. eigenvalues --    0.25446   0.25856   0.26834   0.28073   0.28130
 Alpha virt. eigenvalues --    0.28413   0.28572   0.29132   0.29357   0.29540
 Alpha virt. eigenvalues --    0.30044   0.31553   0.31811   0.32224   0.32943
 Alpha virt. eigenvalues --    0.34022   0.34212   0.34816   0.36046   0.36472
 Alpha virt. eigenvalues --    0.36919   0.37032   0.37467   0.37737   0.38062
 Alpha virt. eigenvalues --    0.38186   0.38765   0.39316   0.39604   0.39654
 Alpha virt. eigenvalues --    0.39982   0.40240   0.41136   0.41426   0.41620
 Alpha virt. eigenvalues --    0.41961   0.41972   0.42403   0.43199   0.43584
 Alpha virt. eigenvalues --    0.43747   0.44314   0.44651   0.44911   0.44930
 Alpha virt. eigenvalues --    0.45835   0.45990   0.46009   0.46470   0.46903
 Alpha virt. eigenvalues --    0.47304   0.47308   0.47769   0.47985   0.48799
 Alpha virt. eigenvalues --    0.49407   0.49720   0.49849   0.50395   0.50761
 Alpha virt. eigenvalues --    0.51721   0.52066   0.52281   0.52489   0.53284
 Alpha virt. eigenvalues --    0.53907   0.53959   0.54508   0.54678   0.56139
 Alpha virt. eigenvalues --    0.56210   0.58012   0.58668   0.59040   0.59716
 Alpha virt. eigenvalues --    0.60171   0.60789   0.60946   0.61212   0.61583
 Alpha virt. eigenvalues --    0.61798   0.62044   0.62070   0.62345   0.62628
 Alpha virt. eigenvalues --    0.63394   0.63683   0.64729   0.65076   0.65121
 Alpha virt. eigenvalues --    0.65900   0.66049   0.66831   0.67180   0.67403
 Alpha virt. eigenvalues --    0.69409   0.70369   0.71392   0.71513   0.71916
 Alpha virt. eigenvalues --    0.73091   0.73718   0.74336   0.74448   0.74520
 Alpha virt. eigenvalues --    0.75159   0.75374   0.76174   0.76474   0.77013
 Alpha virt. eigenvalues --    0.77583   0.78672   0.79243   0.79336   0.79803
 Alpha virt. eigenvalues --    0.79910   0.80335   0.81449   0.81487   0.81622
 Alpha virt. eigenvalues --    0.81769   0.82950   0.83560   0.83842   0.84664
 Alpha virt. eigenvalues --    0.85658   0.85838   0.86612   0.87189   0.88589
 Alpha virt. eigenvalues --    0.88850   0.89117   0.89506   0.91173   0.91718
 Alpha virt. eigenvalues --    0.92065   0.92488   0.93750   0.93770   0.94104
 Alpha virt. eigenvalues --    0.95209   0.97138   0.97969   0.98164   0.99008
 Alpha virt. eigenvalues --    0.99449   1.00853   1.01178   1.02025   1.03042
 Alpha virt. eigenvalues --    1.03817   1.04321   1.04621   1.06537   1.06630
 Alpha virt. eigenvalues --    1.07095   1.09330   1.09814   1.10669   1.11026
 Alpha virt. eigenvalues --    1.12022   1.13066   1.13383   1.15486   1.15547
 Alpha virt. eigenvalues --    1.16564   1.16932   1.17756   1.18309   1.18999
 Alpha virt. eigenvalues --    1.19432   1.20754   1.21537   1.21717   1.22208
 Alpha virt. eigenvalues --    1.23857   1.24291   1.24639   1.26133   1.26954
 Alpha virt. eigenvalues --    1.28500   1.28918   1.29555   1.31634   1.31850
 Alpha virt. eigenvalues --    1.32260   1.33594   1.34161   1.35832   1.36014
 Alpha virt. eigenvalues --    1.37930   1.39575   1.40578   1.40911   1.41395
 Alpha virt. eigenvalues --    1.43458   1.44304   1.44733   1.45587   1.46237
 Alpha virt. eigenvalues --    1.47971   1.48186   1.48643   1.49044   1.50182
 Alpha virt. eigenvalues --    1.50390   1.50862   1.51787   1.52402   1.52422
 Alpha virt. eigenvalues --    1.54124   1.55075   1.55683   1.56378   1.58032
 Alpha virt. eigenvalues --    1.58249   1.60083   1.60358   1.60701   1.62939
 Alpha virt. eigenvalues --    1.64963   1.65606   1.67450   1.68021   1.69124
 Alpha virt. eigenvalues --    1.70117   1.72244   1.72469   1.73610   1.74940
 Alpha virt. eigenvalues --    1.76865   1.77031   1.78604   1.78755   1.79092
 Alpha virt. eigenvalues --    1.79622   1.80471   1.81034   1.82168   1.83199
 Alpha virt. eigenvalues --    1.84016   1.84304   1.85365   1.86042   1.86318
 Alpha virt. eigenvalues --    1.86437   1.86884   1.87838   1.88412   1.89370
 Alpha virt. eigenvalues --    1.91271   1.92203   1.92246   1.93075   1.93581
 Alpha virt. eigenvalues --    1.93823   1.94213   1.95384   1.96328   1.96522
 Alpha virt. eigenvalues --    1.97201   1.98432   1.99158   2.00126   2.01213
 Alpha virt. eigenvalues --    2.02074   2.02836   2.03539   2.03913   2.04562
 Alpha virt. eigenvalues --    2.05122   2.05547   2.06483   2.08288   2.12564
 Alpha virt. eigenvalues --    2.13889   2.14587   2.15439   2.16587   2.17241
 Alpha virt. eigenvalues --    2.18837   2.20284   2.20474   2.23063   2.23135
 Alpha virt. eigenvalues --    2.24706   2.25880   2.27699   2.27808   2.29100
 Alpha virt. eigenvalues --    2.29704   2.30406   2.32336   2.33230   2.33751
 Alpha virt. eigenvalues --    2.36697   2.36727   2.36996   2.37928   2.38922
 Alpha virt. eigenvalues --    2.39064   2.39431   2.40108   2.40342   2.40534
 Alpha virt. eigenvalues --    2.42226   2.42373   2.42384   2.43704   2.47331
 Alpha virt. eigenvalues --    2.51229   2.53099   2.55000   2.55688   2.56283
 Alpha virt. eigenvalues --    2.57656   2.57955   2.58394   2.58770   2.59844
 Alpha virt. eigenvalues --    2.60187   2.62159   2.62449   2.63639   2.64419
 Alpha virt. eigenvalues --    2.68567   2.70897   2.71212   2.72274   2.72965
 Alpha virt. eigenvalues --    2.73627   2.73968   2.75667   2.75716   2.76814
 Alpha virt. eigenvalues --    2.77344   2.78748   2.81074   2.82033   2.82982
 Alpha virt. eigenvalues --    2.84184   2.86273   2.87746   2.88122   2.88492
 Alpha virt. eigenvalues --    2.89190   2.91765   2.92907   2.95649   2.95753
 Alpha virt. eigenvalues --    2.99397   3.00244   3.04303   3.04708   3.09376
 Alpha virt. eigenvalues --    3.09653   3.11049   3.11076   3.14763   3.15561
 Alpha virt. eigenvalues --    3.16250   3.17297   3.19287   3.20383   3.20508
 Alpha virt. eigenvalues --    3.20881   3.21813   3.22994   3.23068   3.25476
 Alpha virt. eigenvalues --    3.25983   3.26194   3.27019   3.27253   3.28283
 Alpha virt. eigenvalues --    3.28796   3.29793   3.30053   3.30875   3.32480
 Alpha virt. eigenvalues --    3.33485   3.33915   3.34222   3.35344   3.36199
 Alpha virt. eigenvalues --    3.37982   3.38202   3.39038   3.43906   3.44503
 Alpha virt. eigenvalues --    3.46690   3.47298   3.48097   3.48759   3.48898
 Alpha virt. eigenvalues --    3.49901   3.50503   3.53095   3.57095   3.58472
 Alpha virt. eigenvalues --    3.61421   3.61489   3.65930   3.66514   3.75990
 Alpha virt. eigenvalues --    3.78763   3.80538   3.81126   3.86741   3.94517
 Alpha virt. eigenvalues --    3.96833   3.99026   4.05033   4.10235   4.20252
 Alpha virt. eigenvalues --    4.30557   4.43708   4.62173   4.70177   4.71164
 Alpha virt. eigenvalues --    4.72340   4.74034   4.75087   4.79052   4.79357
 Alpha virt. eigenvalues --   23.15681  23.26967  23.36755  23.49458  23.57426
 Alpha virt. eigenvalues --   23.64195  23.68665  23.77320  23.80485  23.85373
 Alpha virt. eigenvalues --   23.87135  23.88352  23.89769  23.90342  23.91337
 Alpha virt. eigenvalues --   23.96406  23.97694  23.98961  23.99218  23.99438
 Alpha virt. eigenvalues --   23.99760  24.06103  24.06262  24.13418  24.13498
 Alpha virt. eigenvalues --   24.13901  24.14236  24.14311  24.14835  24.14899
          Condensed to atoms (all electrons):
               1          2          3          4          5          6
     1  C    5.001682   0.574215   0.461226  -0.031641  -0.044737  -0.048902
     2  C    0.574215   5.000785  -0.031090   0.456783  -0.052992  -0.041625
     3  C    0.461226  -0.031090   4.842040  -0.045725   0.494923  -0.057049
     4  C   -0.031641   0.456783  -0.045725   4.813092  -0.030597   0.487417
     5  C   -0.044737  -0.052992   0.494923  -0.030597   5.099116   0.412215
     6  C   -0.048902  -0.041625  -0.057049   0.487417   0.412215   5.216861
     7  C   -0.066728   0.006530   0.456092  -0.000097  -0.047167   0.012547
     8  C    0.006448  -0.000371  -0.035124   0.000098  -0.044903  -0.001223
     9  C    0.000081   0.000089  -0.040315  -0.000205  -0.037044   0.011322
    10  C    0.014120  -0.001089  -0.053885   0.010468   0.454549  -0.077497
    11  H    0.393443  -0.041794  -0.050043   0.006211   0.006494   0.000300
    12  H   -0.041107   0.393976   0.006073  -0.050478   0.000380   0.006095
    13  H   -0.003964   0.000584  -0.050199   0.000031   0.005847  -0.000556
    14  H   -0.000496   0.000009   0.005967  -0.000001   0.000531   0.000068
    15  C   -0.000019   0.000002   0.000470  -0.000002   0.012201  -0.000175
    16  C   -0.000151  -0.000036   0.007875  -0.000120  -0.069358  -0.026290
    17  C   -0.000002   0.000000  -0.000190  -0.000000   0.007658   0.000419
    18  C    0.000001  -0.000000   0.000004   0.000000  -0.000006   0.000035
    19  H   -0.000001   0.000000   0.000044  -0.000000  -0.000466   0.000011
    20  H    0.000001   0.000024  -0.000269   0.000051  -0.008920  -0.001208
    21  H   -0.000000  -0.000000   0.000006  -0.000001  -0.000481  -0.000001
    22  H    0.000000  -0.000000   0.000001   0.000000   0.000039  -0.000001
    23  C   -0.000387   0.006068   0.000079  -0.034615  -0.000733  -0.047617
    24  C    0.006447  -0.064040  -0.000054   0.463694   0.013851  -0.045614
    25  C    0.000074   0.000148  -0.000159  -0.041777   0.008606  -0.051416
    26  C   -0.001643   0.014340   0.011974  -0.051417  -0.081935   0.385980
    27  C    0.000002  -0.000016  -0.000005   0.000147  -0.000056   0.014336
    28  C   -0.000000   0.000002   0.000002   0.000074  -0.000029  -0.001641
    29  C    0.000002  -0.000005  -0.000002  -0.000159   0.000283   0.011968
    30  C   -0.000029  -0.000056   0.000283   0.008608  -0.010568  -0.081879
    31  H    0.000010  -0.000476  -0.000001   0.006263   0.000050   0.000225
    32  H    0.000574  -0.004139   0.000008  -0.050927  -0.000460   0.006381
    33  H    0.000000  -0.000001  -0.000000   0.000001   0.000018  -0.000453
    34  H   -0.000000   0.000000   0.000000   0.000001  -0.000003   0.000049
    35  C   -0.000000  -0.000000  -0.000001  -0.000001  -0.000013   0.000017
    36  C   -0.000018   0.000047   0.000351   0.000672  -0.008295  -0.021719
    37  C    0.000000  -0.000001  -0.000035  -0.000001  -0.000489   0.000135
    38  C   -0.000000  -0.000000  -0.000000   0.000001  -0.000039  -0.000004
    39  H    0.000000   0.000000  -0.000000  -0.000000  -0.000001   0.000012
    40  H    0.000000  -0.000000   0.000000  -0.000000  -0.000000  -0.000001
    41  C    0.000000   0.000000   0.000010  -0.000001   0.000069  -0.000002
    42  C    0.000813  -0.000299  -0.006836   0.000863  -0.018340  -0.000798
    43  C    0.000000   0.000000   0.000013  -0.000001   0.000136  -0.000029
    44  C   -0.000053  -0.000015   0.000203  -0.000009   0.000698   0.000030
    45  H    0.000000  -0.000000  -0.000000  -0.000000  -0.000001  -0.000000
    46  H   -0.000000   0.000000   0.000000  -0.000000   0.000005   0.000000
    47  H   -0.000012  -0.000005   0.000133   0.000011  -0.000028   0.000046
    48  H    0.000930   0.000639  -0.004387  -0.000848  -0.005342   0.002056
               7          8          9         10         11         12
     1  C   -0.066728   0.006448   0.000081   0.014120   0.393443  -0.041107
     2  C    0.006530  -0.000371   0.000089  -0.001089  -0.041794   0.393976
     3  C    0.456092  -0.035124  -0.040315  -0.053885  -0.050043   0.006073
     4  C   -0.000097   0.000098  -0.000205   0.010468   0.006211  -0.050478
     5  C   -0.047167  -0.044903  -0.037044   0.454549   0.006494   0.000380
     6  C    0.012547  -0.001223   0.011322  -0.077497   0.000300   0.006095
     7  C    5.006301   0.584926  -0.033087  -0.046179  -0.004015  -0.000480
     8  C    0.584926   4.991222   0.458944  -0.049512   0.000548   0.000010
     9  C   -0.033087   0.458944   4.780462   0.504823   0.000012  -0.000001
    10  C   -0.046179  -0.049512   0.504823   4.906064  -0.000463   0.000049
    11  H   -0.004015   0.000548   0.000012  -0.000463   0.500702  -0.007084
    12  H   -0.000480   0.000010  -0.000001   0.000049  -0.007084   0.499775
    13  H    0.391715  -0.040058   0.005614   0.000757   0.004561  -0.000037
    14  H   -0.041468   0.391203  -0.048394   0.006078  -0.000041  -0.000001
    15  C    0.005260  -0.068486   0.494814  -0.045066  -0.000002   0.000000
    16  C   -0.000410   0.011222  -0.063102   0.500827   0.000013  -0.000001
    17  C    0.000085  -0.000033  -0.036303  -0.029401  -0.000000   0.000000
    18  C   -0.000270   0.006062  -0.034312  -0.035736   0.000000  -0.000000
    19  H    0.000536  -0.004605  -0.049137   0.006240   0.000000  -0.000000
    20  H    0.000011  -0.000331   0.005479  -0.042080   0.000000  -0.000001
    21  H   -0.000000   0.000044   0.000335   0.005766   0.000000  -0.000000
    22  H    0.000007  -0.000462   0.006188   0.000185  -0.000000   0.000000
    23  C    0.000001  -0.000000   0.000000  -0.000104   0.000008   0.000599
    24  C   -0.000018   0.000001  -0.000003   0.000072  -0.000476  -0.004099
    25  C   -0.000001   0.000001  -0.000001   0.000672   0.000001   0.000001
    26  C    0.000017  -0.000004   0.000136  -0.021692   0.000049  -0.000453
    27  C   -0.000000  -0.000000  -0.000001   0.000047   0.000000  -0.000001
    28  C   -0.000000  -0.000000   0.000000  -0.000018  -0.000000   0.000000
    29  C   -0.000001  -0.000000  -0.000035   0.000348   0.000000  -0.000000
    30  C   -0.000013  -0.000039  -0.000490  -0.008292  -0.000003   0.000018
    31  H    0.000000  -0.000000   0.000000  -0.000001  -0.000001  -0.000035
    32  H   -0.000001   0.000000  -0.000000   0.000018  -0.000035   0.004340
    33  H    0.000000   0.000000   0.000000  -0.000000  -0.000000  -0.000000
    34  H    0.000000  -0.000000   0.000000   0.000002   0.000000  -0.000000
    35  C    0.000000   0.000000   0.000004   0.000069   0.000000   0.000000
    36  C    0.000070   0.000121   0.000919  -0.003402   0.000002  -0.000000
    37  C    0.000004  -0.000003   0.000293   0.000921   0.000000   0.000000
    38  C    0.000000  -0.000000  -0.000003   0.000121  -0.000000   0.000000
    39  H    0.000000   0.000000  -0.000000   0.000003   0.000000  -0.000000
    40  H    0.000000   0.000000  -0.000001  -0.000005  -0.000000   0.000000
    41  C   -0.000003  -0.000034  -0.000091  -0.000152   0.000000  -0.000000
    42  C   -0.001164   0.000326  -0.000020   0.001758   0.000027  -0.000003
    43  C   -0.000024   0.000005   0.000034   0.000159  -0.000000   0.000000
    44  C    0.000345   0.000853  -0.000230  -0.000207  -0.000000  -0.000000
    45  H   -0.000000  -0.000000   0.000002  -0.000001   0.000000   0.000000
    46  H   -0.000001   0.000002   0.000012   0.000006  -0.000000  -0.000000
    47  H    0.000423   0.000161  -0.000027  -0.000096  -0.000001  -0.000000
    48  H   -0.000090   0.000029  -0.000140  -0.000886   0.000023   0.000031
              13         14         15         16         17         18
     1  C   -0.003964  -0.000496  -0.000019  -0.000151  -0.000002   0.000001
     2  C    0.000584   0.000009   0.000002  -0.000036   0.000000  -0.000000
     3  C   -0.050199   0.005967   0.000470   0.007875  -0.000190   0.000004
     4  C    0.000031  -0.000001  -0.000002  -0.000120  -0.000000   0.000000
     5  C    0.005847   0.000531   0.012201  -0.069358   0.007658  -0.000006
     6  C   -0.000556   0.000068  -0.000175  -0.026290   0.000419   0.000035
     7  C    0.391715  -0.041468   0.005260  -0.000410   0.000085  -0.000270
     8  C   -0.040058   0.391203  -0.068486   0.011222  -0.000033   0.006062
     9  C    0.005614  -0.048394   0.494814  -0.063102  -0.036303  -0.034312
    10  C    0.000757   0.006078  -0.045066   0.500827  -0.029401  -0.035736
    11  H    0.004561  -0.000041  -0.000002   0.000013  -0.000000   0.000000
    12  H   -0.000037  -0.000001   0.000000  -0.000001   0.000000  -0.000000
    13  H    0.503281  -0.007348  -0.000514   0.000061   0.000001   0.000009
    14  H   -0.007348   0.502822  -0.003353  -0.000494   0.000034   0.000344
    15  C   -0.000514  -0.003353   5.005826  -0.048288  -0.046357   0.557021
    16  C    0.000061  -0.000494  -0.048288   5.055788   0.551765  -0.046039
    17  C    0.000001   0.000034  -0.046357   0.551765   4.924649   0.496494
    18  C    0.000009   0.000344   0.557021  -0.046039   0.496494   4.930838
    19  H   -0.000038   0.004772   0.391095  -0.000046   0.006258  -0.042054
    20  H   -0.000001   0.000018  -0.000095   0.390436  -0.038867   0.005873
    21  H    0.000000  -0.000002   0.006355  -0.041208   0.397646  -0.046189
    22  H   -0.000001  -0.000036  -0.044080   0.006552  -0.045298   0.398623
    23  C   -0.000000   0.000000  -0.000000   0.000013   0.000000   0.000000
    24  C   -0.000001   0.000000  -0.000000   0.000010  -0.000001   0.000000
    25  C   -0.000000  -0.000000  -0.000001   0.000858  -0.000009  -0.000001
    26  C    0.000012  -0.000001  -0.000003  -0.000783   0.000029  -0.000029
    27  C    0.000000  -0.000000   0.000000  -0.000298  -0.000015   0.000000
    28  C    0.000000   0.000000   0.000000   0.000809  -0.000053   0.000000
    29  C   -0.000000   0.000000   0.000010  -0.006802   0.000202   0.000013
    30  C   -0.000001  -0.000000   0.000069  -0.018314   0.000693   0.000136
    31  H   -0.000000   0.000000   0.000000   0.000001  -0.000000  -0.000000
    32  H    0.000000  -0.000000   0.000000  -0.000001   0.000000   0.000000
    33  H   -0.000000   0.000000  -0.000000  -0.000003  -0.000000   0.000000
    34  H    0.000000  -0.000000   0.000000   0.000026  -0.000000  -0.000000
    35  C    0.000000   0.000000  -0.000003  -0.001158   0.000344  -0.000024
    36  C    0.000003  -0.000005  -0.000152   0.001758  -0.000205   0.000159
    37  C   -0.000000  -0.000001  -0.000091  -0.000015  -0.000228   0.000034
    38  C    0.000000   0.000000  -0.000034   0.000325   0.000849   0.000005
    39  H    0.000000   0.000000  -0.000000   0.000039   0.000024  -0.000000
    40  H    0.000000   0.000000  -0.000003   0.000050   0.000067   0.000008
    41  C   -0.000000  -0.000003   0.000205  -0.000122  -0.000138   0.000041
    42  C    0.000040   0.000050  -0.000122  -0.000832  -0.000081   0.000011
    43  C   -0.000000   0.000008   0.000041   0.000011  -0.000007  -0.000040
    44  C    0.000024   0.000068  -0.000139  -0.000081   0.000043  -0.000007
    45  H   -0.000000  -0.000000   0.000012  -0.000008   0.000006   0.000012
    46  H   -0.000000   0.000000   0.000006  -0.000000  -0.000001  -0.000000
    47  H    0.000013  -0.000008  -0.000007  -0.000000   0.000000   0.000001
    48  H   -0.000020   0.000008   0.000007   0.000140   0.000029  -0.000003
              19         20         21         22         23         24
     1  C   -0.000001   0.000001  -0.000000   0.000000  -0.000387   0.006447
     2  C    0.000000   0.000024  -0.000000  -0.000000   0.006068  -0.064040
     3  C    0.000044  -0.000269   0.000006   0.000001   0.000079  -0.000054
     4  C   -0.000000   0.000051  -0.000001   0.000000  -0.034615   0.463694
     5  C   -0.000466  -0.008920  -0.000481   0.000039  -0.000733   0.013851
     6  C    0.000011  -0.001208  -0.000001  -0.000001  -0.047617  -0.045614
     7  C    0.000536   0.000011  -0.000000   0.000007   0.000001  -0.000018
     8  C   -0.004605  -0.000331   0.000044  -0.000462  -0.000000   0.000001
     9  C   -0.049137   0.005479   0.000335   0.006188   0.000000  -0.000003
    10  C    0.006240  -0.042080   0.005766   0.000185  -0.000104   0.000072
    11  H    0.000000   0.000000   0.000000  -0.000000   0.000008  -0.000476
    12  H   -0.000000  -0.000001  -0.000000   0.000000   0.000599  -0.004099
    13  H   -0.000038  -0.000001   0.000000  -0.000001  -0.000000  -0.000001
    14  H    0.004772   0.000018  -0.000002  -0.000036   0.000000   0.000000
    15  C    0.391095  -0.000095   0.006355  -0.044080  -0.000000  -0.000000
    16  C   -0.000046   0.390436  -0.041208   0.006552   0.000013   0.000010
    17  C    0.006258  -0.038867   0.397646  -0.045298   0.000000  -0.000001
    18  C   -0.042054   0.005873  -0.046189   0.398623   0.000000   0.000000
    19  H    0.506150   0.000094  -0.000411  -0.007076   0.000000   0.000000
    20  H    0.000094   0.470074  -0.007078  -0.000386  -0.000046  -0.000095
    21  H   -0.000411  -0.007078   0.501476  -0.006063  -0.000000   0.000000
    22  H   -0.007076  -0.000386  -0.006063   0.502883  -0.000000  -0.000000
    23  C    0.000000  -0.000046  -0.000000  -0.000000   4.994040   0.578467
    24  C    0.000000  -0.000095   0.000000  -0.000000   0.578467   4.994036
    25  C   -0.000000  -0.000847   0.000010  -0.000000   0.463684  -0.034625
    26  C   -0.000000   0.002069   0.000045   0.000000  -0.045598  -0.047622
    27  C   -0.000000   0.000639  -0.000005   0.000000  -0.064042   0.006067
    28  C    0.000000   0.000926  -0.000012  -0.000000   0.006446  -0.000387
    29  C   -0.000000  -0.004366   0.000132   0.000000  -0.000054   0.000079
    30  C   -0.000001  -0.005332  -0.000028   0.000005   0.013852  -0.000732
    31  H    0.000000  -0.000004   0.000000  -0.000000   0.394469  -0.041682
    32  H   -0.000000   0.000000  -0.000000   0.000000  -0.041682   0.394468
    33  H    0.000000   0.000031  -0.000000  -0.000000  -0.004098   0.000599
    34  H    0.000000   0.000023  -0.000001  -0.000000  -0.000476   0.000008
    35  C   -0.000000  -0.000089   0.000420  -0.000001  -0.000018   0.000001
    36  C   -0.000001  -0.000885  -0.000096   0.000006   0.000072  -0.000104
    37  C    0.000002  -0.000139  -0.000027   0.000012  -0.000003   0.000000
    38  C   -0.000000   0.000029   0.000160   0.000002   0.000001  -0.000000
    39  H   -0.000000  -0.000020   0.000013  -0.000000  -0.000001  -0.000000
    40  H   -0.000000   0.000008  -0.000008   0.000000   0.000000   0.000000
    41  C    0.000012   0.000007  -0.000007   0.000006  -0.000000  -0.000000
    42  C   -0.000008   0.000140  -0.000000  -0.000000   0.000010   0.000013
    43  C    0.000012  -0.000003   0.000001  -0.000000   0.000000   0.000000
    44  C    0.000006   0.000029   0.000000  -0.000001  -0.000001   0.000000
    45  H   -0.000000  -0.000000  -0.000000   0.000000   0.000000   0.000000
    46  H    0.000000   0.000000   0.000000  -0.000000  -0.000000  -0.000000
    47  H   -0.000000  -0.000000  -0.000000   0.000000   0.000000  -0.000000
    48  H   -0.000000   0.000019  -0.000000   0.000000  -0.000095  -0.000046
              25         26         27         28         29         30
     1  C    0.000074  -0.001643   0.000002  -0.000000   0.000002  -0.000029
     2  C    0.000148   0.014340  -0.000016   0.000002  -0.000005  -0.000056
     3  C   -0.000159   0.011974  -0.000005   0.000002  -0.000002   0.000283
     4  C   -0.041777  -0.051417   0.000147   0.000074  -0.000159   0.008608
     5  C    0.008606  -0.081935  -0.000056  -0.000029   0.000283  -0.010568
     6  C   -0.051416   0.385980   0.014336  -0.001641   0.011968  -0.081879
     7  C   -0.000001   0.000017  -0.000000  -0.000000  -0.000001  -0.000013
     8  C    0.000001  -0.000004  -0.000000  -0.000000  -0.000000  -0.000039
     9  C   -0.000001   0.000136  -0.000001   0.000000  -0.000035  -0.000490
    10  C    0.000672  -0.021692   0.000047  -0.000018   0.000348  -0.008292
    11  H    0.000001   0.000049   0.000000  -0.000000   0.000000  -0.000003
    12  H    0.000001  -0.000453  -0.000001   0.000000  -0.000000   0.000018
    13  H   -0.000000   0.000012   0.000000   0.000000  -0.000000  -0.000001
    14  H   -0.000000  -0.000001  -0.000000   0.000000   0.000000  -0.000000
    15  C   -0.000001  -0.000003   0.000000   0.000000   0.000010   0.000069
    16  C    0.000858  -0.000783  -0.000298   0.000809  -0.006802  -0.018314
    17  C   -0.000009   0.000029  -0.000015  -0.000053   0.000202   0.000693
    18  C   -0.000001  -0.000029   0.000000   0.000000   0.000013   0.000136
    19  H   -0.000000  -0.000000  -0.000000   0.000000  -0.000000  -0.000001
    20  H   -0.000847   0.002069   0.000639   0.000926  -0.004366  -0.005332
    21  H    0.000010   0.000045  -0.000005  -0.000012   0.000132  -0.000028
    22  H   -0.000000   0.000000   0.000000  -0.000000   0.000000   0.000005
    23  C    0.463684  -0.045598  -0.064042   0.006446  -0.000054   0.013852
    24  C   -0.034625  -0.047622   0.006067  -0.000387   0.000079  -0.000732
    25  C    4.813085   0.487433   0.456806  -0.031641  -0.045719  -0.030605
    26  C    0.487433   5.216658  -0.041651  -0.048899  -0.057039   0.412271
    27  C    0.456806  -0.041651   5.000785   0.574224  -0.031110  -0.052983
    28  C   -0.031641  -0.048899   0.574224   5.001687   0.461236  -0.044731
    29  C   -0.045719  -0.057039  -0.031110   0.461236   4.841912   0.495010
    30  C   -0.030605   0.412271  -0.052983  -0.044731   0.495010   5.098680
    31  H   -0.050926   0.006381  -0.004138   0.000574   0.000008  -0.000460
    32  H    0.006263   0.000225  -0.000476   0.000010  -0.000001   0.000050
    33  H   -0.050475   0.006095   0.393971  -0.041105   0.006072   0.000381
    34  H    0.006210   0.000301  -0.041793   0.393438  -0.050038   0.006492
    35  C   -0.000097   0.012549   0.006530  -0.066734   0.456104  -0.047161
    36  C    0.010471  -0.077486  -0.001088   0.014121  -0.053885   0.454531
    37  C   -0.000204   0.011325   0.000089   0.000081  -0.040314  -0.037036
    38  C    0.000098  -0.001223  -0.000371   0.006448  -0.035124  -0.044904
    39  H    0.000031  -0.000556   0.000584  -0.003964  -0.050196   0.005847
    40  H   -0.000001   0.000068   0.000009  -0.000496   0.005966   0.000531
    41  C   -0.000002  -0.000175   0.000002  -0.000019   0.000470   0.012203
    42  C   -0.000122  -0.026321  -0.000036  -0.000151   0.007878  -0.069348
    43  C    0.000000   0.000034  -0.000000   0.000001   0.000004  -0.000006
    44  C   -0.000000   0.000420   0.000000  -0.000002  -0.000190   0.007657
    45  H   -0.000000   0.000011   0.000000  -0.000001   0.000044  -0.000466
    46  H    0.000000  -0.000001  -0.000000   0.000000   0.000001   0.000039
    47  H   -0.000001  -0.000001  -0.000000  -0.000000   0.000006  -0.000481
    48  H    0.000051  -0.001231   0.000025   0.000001  -0.000268  -0.008909
              31         32         33         34         35         36
     1  C    0.000010   0.000574   0.000000  -0.000000  -0.000000  -0.000018
     2  C   -0.000476  -0.004139  -0.000001   0.000000  -0.000000   0.000047
     3  C   -0.000001   0.000008  -0.000000   0.000000  -0.000001   0.000351
     4  C    0.006263  -0.050927   0.000001   0.000001  -0.000001   0.000672
     5  C    0.000050  -0.000460   0.000018  -0.000003  -0.000013  -0.008295
     6  C    0.000225   0.006381  -0.000453   0.000049   0.000017  -0.021719
     7  C    0.000000  -0.000001   0.000000   0.000000   0.000000   0.000070
     8  C   -0.000000   0.000000   0.000000  -0.000000   0.000000   0.000121
     9  C    0.000000  -0.000000   0.000000   0.000000   0.000004   0.000919
    10  C   -0.000001   0.000018  -0.000000   0.000002   0.000069  -0.003402
    11  H   -0.000001  -0.000035  -0.000000   0.000000   0.000000   0.000002
    12  H   -0.000035   0.004340  -0.000000  -0.000000   0.000000  -0.000000
    13  H   -0.000000   0.000000  -0.000000   0.000000   0.000000   0.000003
    14  H    0.000000  -0.000000   0.000000  -0.000000   0.000000  -0.000005
    15  C    0.000000   0.000000  -0.000000   0.000000  -0.000003  -0.000152
    16  C    0.000001  -0.000001  -0.000003   0.000026  -0.001158   0.001758
    17  C   -0.000000   0.000000  -0.000000  -0.000000   0.000344  -0.000205
    18  C   -0.000000   0.000000   0.000000  -0.000000  -0.000024   0.000159
    19  H    0.000000  -0.000000   0.000000   0.000000  -0.000000  -0.000001
    20  H   -0.000004   0.000000   0.000031   0.000023  -0.000089  -0.000885
    21  H    0.000000  -0.000000  -0.000000  -0.000001   0.000420  -0.000096
    22  H   -0.000000   0.000000  -0.000000  -0.000000  -0.000001   0.000006
    23  C    0.394469  -0.041682  -0.004098  -0.000476  -0.000018   0.000072
    24  C   -0.041682   0.394468   0.000599   0.000008   0.000001  -0.000104
    25  C   -0.050926   0.006263  -0.050475   0.006210  -0.000097   0.010471
    26  C    0.006381   0.000225   0.006095   0.000301   0.012549  -0.077486
    27  C   -0.004138  -0.000476   0.393971  -0.041793   0.006530  -0.001088
    28  C    0.000574   0.000010  -0.041105   0.393438  -0.066734   0.014121
    29  C    0.000008  -0.000001   0.006072  -0.050038   0.456104  -0.053885
    30  C   -0.000460   0.000050   0.000381   0.006492  -0.047161   0.454531
    31  H    0.500122  -0.007086   0.004340  -0.000035  -0.000001   0.000018
    32  H   -0.007086   0.500122  -0.000035  -0.000001   0.000000  -0.000001
    33  H    0.004340  -0.000035   0.499778  -0.007084  -0.000480   0.000049
    34  H   -0.000035  -0.000001  -0.007084   0.500703  -0.004014  -0.000463
    35  C   -0.000001   0.000000  -0.000480  -0.004014   5.006291  -0.046184
    36  C    0.000018  -0.000001   0.000049  -0.000463  -0.046184   4.906135
    37  C   -0.000000   0.000000  -0.000001   0.000012  -0.033084   0.504851
    38  C    0.000000  -0.000000   0.000010   0.000548   0.584928  -0.049516
    39  H    0.000000  -0.000000  -0.000037   0.004561   0.391711   0.000757
    40  H   -0.000000   0.000000  -0.000001  -0.000041  -0.041467   0.006079
    41  C    0.000000   0.000000   0.000000  -0.000002   0.005261  -0.045057
    42  C   -0.000001   0.000001  -0.000001   0.000013  -0.000410   0.500765
    43  C    0.000000  -0.000000  -0.000000   0.000000  -0.000270  -0.035738
    44  C    0.000000  -0.000000   0.000000  -0.000000   0.000085  -0.029392
    45  H   -0.000000   0.000000  -0.000000   0.000000   0.000536   0.006241
    46  H    0.000000  -0.000000   0.000000  -0.000000   0.000007   0.000185
    47  H   -0.000000   0.000000  -0.000000   0.000000  -0.000000   0.005767
    48  H    0.000000  -0.000004  -0.000001   0.000000   0.000011  -0.042103
              37         38         39         40         41         42
     1  C    0.000000  -0.000000   0.000000   0.000000   0.000000   0.000813
     2  C   -0.000001  -0.000000   0.000000  -0.000000   0.000000  -0.000299
     3  C   -0.000035  -0.000000  -0.000000   0.000000   0.000010  -0.006836
     4  C   -0.000001   0.000001  -0.000000  -0.000000  -0.000001   0.000863
     5  C   -0.000489  -0.000039  -0.000001  -0.000000   0.000069  -0.018340
     6  C    0.000135  -0.000004   0.000012  -0.000001  -0.000002  -0.000798
     7  C    0.000004   0.000000   0.000000   0.000000  -0.000003  -0.001164
     8  C   -0.000003  -0.000000   0.000000   0.000000  -0.000034   0.000326
     9  C    0.000293  -0.000003  -0.000000  -0.000001  -0.000091  -0.000020
    10  C    0.000921   0.000121   0.000003  -0.000005  -0.000152   0.001758
    11  H    0.000000  -0.000000   0.000000  -0.000000   0.000000   0.000027
    12  H    0.000000   0.000000  -0.000000   0.000000  -0.000000  -0.000003
    13  H   -0.000000   0.000000   0.000000   0.000000  -0.000000   0.000040
    14  H   -0.000001   0.000000   0.000000   0.000000  -0.000003   0.000050
    15  C   -0.000091  -0.000034  -0.000000  -0.000003   0.000205  -0.000122
    16  C   -0.000015   0.000325   0.000039   0.000050  -0.000122  -0.000832
    17  C   -0.000228   0.000849   0.000024   0.000067  -0.000138  -0.000081
    18  C    0.000034   0.000005  -0.000000   0.000008   0.000041   0.000011
    19  H    0.000002  -0.000000  -0.000000  -0.000000   0.000012  -0.000008
    20  H   -0.000139   0.000029  -0.000020   0.000008   0.000007   0.000140
    21  H   -0.000027   0.000160   0.000013  -0.000008  -0.000007  -0.000000
    22  H    0.000012   0.000002  -0.000000   0.000000   0.000006  -0.000000
    23  C   -0.000003   0.000001  -0.000001   0.000000  -0.000000   0.000010
    24  C    0.000000  -0.000000  -0.000000   0.000000  -0.000000   0.000013
    25  C   -0.000204   0.000098   0.000031  -0.000001  -0.000002  -0.000122
    26  C    0.011325  -0.001223  -0.000556   0.000068  -0.000175  -0.026321
    27  C    0.000089  -0.000371   0.000584   0.000009   0.000002  -0.000036
    28  C    0.000081   0.006448  -0.003964  -0.000496  -0.000019  -0.000151
    29  C   -0.040314  -0.035124  -0.050196   0.005966   0.000470   0.007878
    30  C   -0.037036  -0.044904   0.005847   0.000531   0.012203  -0.069348
    31  H   -0.000000   0.000000   0.000000  -0.000000   0.000000  -0.000001
    32  H    0.000000  -0.000000  -0.000000   0.000000   0.000000   0.000001
    33  H   -0.000001   0.000010  -0.000037  -0.000001   0.000000  -0.000001
    34  H    0.000012   0.000548   0.004561  -0.000041  -0.000002   0.000013
    35  C   -0.033084   0.584928   0.391711  -0.041467   0.005261  -0.000410
    36  C    0.504851  -0.049516   0.000757   0.006079  -0.045057   0.500765
    37  C    4.780454   0.458957   0.005614  -0.048392   0.494810  -0.063116
    38  C    0.458957   4.991227  -0.040058   0.391199  -0.068492   0.011223
    39  H    0.005614  -0.040058   0.503283  -0.007347  -0.000514   0.000061
    40  H   -0.048392   0.391199  -0.007347   0.502822  -0.003353  -0.000495
    41  C    0.494810  -0.068492  -0.000514  -0.003353   5.005840  -0.048294
    42  C   -0.063116   0.011223   0.000061  -0.000495  -0.048294   5.055994
    43  C   -0.034314   0.006062   0.000009   0.000344   0.557018  -0.046038
    44  C   -0.036301  -0.000033   0.000001   0.000034  -0.046349   0.551762
    45  H   -0.049136  -0.004605  -0.000038   0.004772   0.391093  -0.000046
    46  H    0.006188  -0.000462  -0.000001  -0.000036  -0.044082   0.006553
    47  H    0.000335   0.000044   0.000000  -0.000002   0.006355  -0.041207
    48  H    0.005475  -0.000331  -0.000001   0.000018  -0.000094   0.390448
              43         44         45         46         47         48
     1  C    0.000000  -0.000053   0.000000  -0.000000  -0.000012   0.000930
     2  C    0.000000  -0.000015  -0.000000   0.000000  -0.000005   0.000639
     3  C    0.000013   0.000203  -0.000000   0.000000   0.000133  -0.004387
     4  C   -0.000001  -0.000009  -0.000000  -0.000000   0.000011  -0.000848
     5  C    0.000136   0.000698  -0.000001   0.000005  -0.000028  -0.005342
     6  C   -0.000029   0.000030  -0.000000   0.000000   0.000046   0.002056
     7  C   -0.000024   0.000345  -0.000000  -0.000001   0.000423  -0.000090
     8  C    0.000005   0.000853  -0.000000   0.000002   0.000161   0.000029
     9  C    0.000034  -0.000230   0.000002   0.000012  -0.000027  -0.000140
    10  C    0.000159  -0.000207  -0.000001   0.000006  -0.000096  -0.000886
    11  H   -0.000000  -0.000000   0.000000  -0.000000  -0.000001   0.000023
    12  H    0.000000  -0.000000   0.000000  -0.000000  -0.000000   0.000031
    13  H   -0.000000   0.000024  -0.000000  -0.000000   0.000013  -0.000020
    14  H    0.000008   0.000068  -0.000000   0.000000  -0.000008   0.000008
    15  C    0.000041  -0.000139   0.000012   0.000006  -0.000007   0.000007
    16  C    0.000011  -0.000081  -0.000008  -0.000000  -0.000000   0.000140
    17  C   -0.000007   0.000043   0.000006  -0.000001   0.000000   0.000029
    18  C   -0.000040  -0.000007   0.000012  -0.000000   0.000001  -0.000003
    19  H    0.000012   0.000006  -0.000000   0.000000  -0.000000  -0.000000
    20  H   -0.000003   0.000029  -0.000000   0.000000  -0.000000   0.000019
    21  H    0.000001   0.000000  -0.000000   0.000000  -0.000000  -0.000000
    22  H   -0.000000  -0.000001   0.000000  -0.000000   0.000000   0.000000
    23  C    0.000000  -0.000001   0.000000  -0.000000   0.000000  -0.000095
    24  C    0.000000   0.000000   0.000000  -0.000000  -0.000000  -0.000046
    25  C    0.000000  -0.000000  -0.000000   0.000000  -0.000001   0.000051
    26  C    0.000034   0.000420   0.000011  -0.000001  -0.000001  -0.001231
    27  C   -0.000000   0.000000   0.000000  -0.000000  -0.000000   0.000025
    28  C    0.000001  -0.000002  -0.000001   0.000000  -0.000000   0.000001
    29  C    0.000004  -0.000190   0.000044   0.000001   0.000006  -0.000268
    30  C   -0.000006   0.007657  -0.000466   0.000039  -0.000481  -0.008909
    31  H    0.000000   0.000000  -0.000000   0.000000  -0.000000   0.000000
    32  H   -0.000000  -0.000000   0.000000  -0.000000   0.000000  -0.000004
    33  H   -0.000000   0.000000  -0.000000   0.000000  -0.000000  -0.000001
    34  H    0.000000  -0.000000   0.000000  -0.000000   0.000000   0.000000
    35  C   -0.000270   0.000085   0.000536   0.000007  -0.000000   0.000011
    36  C   -0.035738  -0.029392   0.006241   0.000185   0.005767  -0.042103
    37  C   -0.034314  -0.036301  -0.049136   0.006188   0.000335   0.005475
    38  C    0.006062  -0.000033  -0.004605  -0.000462   0.000044  -0.000331
    39  H    0.000009   0.000001  -0.000038  -0.000001   0.000000  -0.000001
    40  H    0.000344   0.000034   0.004772  -0.000036  -0.000002   0.000018
    41  C    0.557018  -0.046349   0.391093  -0.044082   0.006355  -0.000094
    42  C   -0.046038   0.551762  -0.000046   0.006553  -0.041207   0.390448
    43  C    4.930847   0.496486  -0.042054   0.398624  -0.046192   0.005872
    44  C    0.496486   4.924637   0.006257  -0.045300   0.397648  -0.038859
    45  H   -0.042054   0.006257   0.506152  -0.007076  -0.000411   0.000094
    46  H    0.398624  -0.045300  -0.007076   0.502888  -0.006063  -0.000386
    47  H   -0.046192   0.397648  -0.000411  -0.006063   0.501481  -0.007078
    48  H    0.005872  -0.038859   0.000094  -0.000386  -0.007078   0.470055
 Mulliken charges:
               1
     1  C   -0.220178
     2  C   -0.216193
     3  C    0.087592
     4  C    0.084134
     5  C   -0.054665
     6  C   -0.062825
     7  C   -0.223653
     8  C   -0.207036
     9  C    0.073378
    10  C    0.001641
    11  H    0.191564
    12  H    0.192434
    13  H    0.190187
    14  H    0.189672
    15  C   -0.216402
    16  C   -0.204620
    17  C   -0.190106
    18  C   -0.191015
    19  H    0.188613
    20  H    0.235082
    21  H    0.189209
    22  H    0.188897
    23  C   -0.218241
    24  C   -0.218215
    25  C    0.084126
    26  C   -0.062663
    27  C   -0.216177
    28  C   -0.220196
    29  C    0.087558
    30  C   -0.054488
    31  H    0.192387
    32  H    0.192389
    33  H    0.192433
    34  H    0.191562
    35  C   -0.223657
    36  C    0.001645
    37  C    0.073339
    38  C   -0.207037
    39  H    0.190186
    40  H    0.189673
    41  C   -0.216415
    42  C   -0.204660
    43  C   -0.191009
    44  C   -0.190116
    45  H    0.188611
    46  H    0.188893
    47  H    0.189200
    48  H    0.235163
 Sum of Mulliken charges =  -0.00000
 Mulliken charges with hydrogens summed into heavy atoms:
               1
     1  C   -0.028614
     2  C   -0.023758
     3  C    0.087592
     4  C    0.084134
     5  C   -0.054665
     6  C   -0.062825
     7  C   -0.033466
     8  C   -0.017364
     9  C    0.073378
    10  C    0.001641
    15  C   -0.027789
    16  C    0.030462
    17  C   -0.000897
    18  C   -0.002118
    23  C   -0.025853
    24  C   -0.025826
    25  C    0.084126
    26  C   -0.062663
    27  C   -0.023745
    28  C   -0.028633
    29  C    0.087558
    30  C   -0.054488
    35  C   -0.033472
    36  C    0.001645
    37  C    0.073339
    38  C   -0.017364
    41  C   -0.027804
    42  C    0.030503
    43  C   -0.002115
    44  C   -0.000916
 Electronic spatial extent (au):  <R**2>=           8609.4940
 Charge=             -0.0000 electrons
 Dipole moment (field-independent basis, Debye):
    X=              0.0003    Y=             -0.0001    Z=             -0.1243  Tot=              0.1243
 Quadrupole moment (field-independent basis, Debye-Ang):
   XX=           -151.1762   YY=           -179.7044   ZZ=           -152.8421
   XY=              2.5422   XZ=             -0.0018   YZ=             -0.0010
 Traceless Quadrupole moment (field-independent basis, Debye-Ang):
   XX=             10.0647   YY=            -18.4635   ZZ=              8.3988
   XY=              2.5422   XZ=             -0.0018   YZ=             -0.0010
 Octapole moment (field-independent basis, Debye-Ang**2):
  XXX=              0.0096  YYY=             -0.0125  ZZZ=             17.6669  XYY=             -0.0181
  XXY=              0.0198  XXZ=              2.8540  XZZ=              0.0091  YZZ=             -0.0019
  YYZ=            -30.7517  XYZ=              4.3009
 Hexadecapole moment (field-independent basis, Debye-Ang**3):
 XXXX=          -4135.0834 YYYY=          -2694.3343 ZZZZ=          -4629.9774 XXXY=            467.9433
 XXXZ=              0.1516 YYYX=            610.6958 YYYZ=             -0.0422 ZZZX=              0.1450
 ZZZY=             -0.0442 XXYY=          -1220.4278 XXZZ=          -1456.4775 YYZZ=          -1226.7657
 XXYZ=             -0.0296 YYXZ=              0.1054 ZZXY=            150.5469
 N-N= 2.718532099858D+03 E-N=-8.115893301189D+03  KE= 1.149220081504D+03
 There are a total of     1091044 grid points.
 ElSum from          density=      197.9999630143
 ElSum from atomic densities=      197.9999682187
 Hirshfeld populations at iteration   1 (CA, CB, DipXYZ):
               1          2          3          4          5
     1  C    3.022129   3.022129   0.055154  -0.002450  -0.035753
     2  C    3.022503   3.022503  -0.004575   0.002651   0.065416
     3  C    3.002290   3.002290   0.005499   0.003242  -0.003801
     4  C    3.002438   3.002438   0.001240   0.000618   0.002117
     5  C    2.997275   2.997275  -0.025152   0.009967  -0.006813
     6  C    2.997167   2.997167  -0.013851   0.004883  -0.023629
     7  C    3.022946   3.022946   0.049176   0.013281   0.040933
     8  C    3.020470   3.020470  -0.005138  -0.016755  -0.067385
     9  C    3.000849   3.000849   0.003114   0.006169   0.005148
    10  C    2.999390   2.999390   0.010635   0.019100   0.009296
    11  H    0.477814   0.477814   0.147255  -0.001321   0.004635
    12  H    0.477619   0.477619   0.074622   0.013885   0.126826
    13  H    0.478482   0.478482   0.146234   0.010573   0.001047
    14  H    0.477709   0.477709   0.081171  -0.028240  -0.118972
    15  C    3.021383   3.021383   0.044011   0.002301  -0.030608
    16  C    3.020133   3.020133  -0.006061   0.013644   0.036089
    17  C    3.020839   3.020839  -0.053891  -0.022684  -0.015675
    18  C    3.021826   3.021826  -0.044991  -0.025072  -0.040937
    19  H    0.479027   0.479027   0.077760  -0.027679  -0.120168
    20  H    0.482315   0.482315  -0.079471  -0.011451   0.099572
    21  H    0.477831   0.477831  -0.140471  -0.048784   0.006766
    22  H    0.477902   0.477902  -0.063075  -0.065076  -0.118131
    23  C    3.022140   3.022140  -0.058998  -0.003183   0.029924
    24  C    3.022142   3.022142   0.059001   0.003180   0.029918
    25  C    3.002440   3.002440  -0.001238  -0.000614   0.002117
    26  C    2.997169   2.997169   0.013850  -0.004882  -0.023619
    27  C    3.022504   3.022504   0.004580  -0.002666   0.065413
    28  C    3.022129   3.022129  -0.055157   0.002474  -0.035745
    29  C    3.002291   3.002291  -0.005503  -0.003214  -0.003796
    30  C    2.997282   2.997282   0.025139  -0.009942  -0.006806
    31  H    0.477493   0.477493  -0.071747   0.000478   0.129268
    32  H    0.477493   0.477493   0.071759  -0.000481   0.129262
    33  H    0.477619   0.477619  -0.074612  -0.013882   0.126832
    34  H    0.477815   0.477815  -0.147253   0.001361   0.004649
    35  C    3.022946   3.022946  -0.049176  -0.013269   0.040936
    36  C    2.999395   2.999395  -0.010647  -0.019080   0.009296
    37  C    3.000851   3.000851  -0.003121  -0.006166   0.005147
    38  C    3.020471   3.020471   0.005138   0.016768  -0.067381
    39  H    0.478482   0.478482  -0.146238  -0.010522   0.001062
    40  H    0.477710   0.477710  -0.081173   0.028288  -0.118959
    41  C    3.021384   3.021384  -0.044018  -0.002274  -0.030600
    42  C    3.020136   3.020136   0.006049  -0.013662   0.036069
    43  C    3.021827   3.021827   0.044996   0.025058  -0.040936
    44  C    3.020839   3.020839   0.053891   0.022656  -0.015685
    45  H    0.479028   0.479028  -0.077763   0.027733  -0.120153
    46  H    0.477903   0.477903   0.063091   0.065060  -0.118130
    47  H    0.477833   0.477833   0.140489   0.048716   0.006746
    48  H    0.482323   0.482323   0.079464   0.011396   0.099530
       Tot  98.999982  98.999982  -0.000005   0.000135  -0.049669

 Dip from Atomic Chgs              0.000117  -0.000184   0.000920
         Total Dipole              0.000113  -0.000049  -0.048749

 Hirshfeld charges, spin densities, dipoles, and CM5 charges using IRadAn=      5:
              Q-H        S-H        Dx         Dy         Dz        Q-CM5   
     1  C   -0.044258   0.000000   0.055154  -0.002450  -0.035753  -0.097087
     2  C   -0.045006   0.000000  -0.004575   0.002651   0.065416  -0.097788
     3  C   -0.004580   0.000000   0.005499   0.003242  -0.003801  -0.011952
     4  C   -0.004876   0.000000   0.001240   0.000618   0.002117  -0.012102
     5  C    0.005451   0.000000  -0.025152   0.009967  -0.006813   0.003119
     6  C    0.005665   0.000000  -0.013851   0.004883  -0.023629   0.003057
     7  C   -0.045891   0.000000   0.049176   0.013281   0.040933  -0.098679
     8  C   -0.040940   0.000000  -0.005138  -0.016755  -0.067385  -0.093715
     9  C   -0.001698   0.000000   0.003114   0.006169   0.005148  -0.008937
    10  C    0.001219   0.000000   0.010635   0.019100   0.009296  -0.002832
    11  H    0.044372   0.000000   0.147255  -0.001321   0.004635   0.100763
    12  H    0.044762   0.000000   0.074622   0.013885   0.126826   0.101148
    13  H    0.043036   0.000000   0.146234   0.010573   0.001047   0.099466
    14  H    0.044582   0.000000   0.081171  -0.028240  -0.118972   0.100904
    15  C   -0.042766   0.000000   0.044011   0.002301  -0.030608  -0.095503
    16  C   -0.040267   0.000000  -0.006061   0.013644   0.036089  -0.092890
    17  C   -0.041677   0.000000  -0.053891  -0.022684  -0.015675  -0.097019
    18  C   -0.043652   0.000000  -0.044991  -0.025072  -0.040937  -0.098863
    19  H    0.041945   0.000000   0.077760  -0.027679  -0.120168   0.098288
    20  H    0.035371   0.000000  -0.079471  -0.011451   0.099572   0.096827
    21  H    0.044338   0.000000  -0.140471  -0.048784   0.006766   0.099894
    22  H    0.044195   0.000000  -0.063075  -0.065076  -0.118131   0.099555
    23  C   -0.044281   0.000000  -0.058998  -0.003183   0.029924  -0.097012
    24  C   -0.044283   0.000000   0.059001   0.003180   0.029918  -0.097014
    25  C   -0.004879   0.000000  -0.001238  -0.000614   0.002117  -0.012105
    26  C    0.005662   0.000000   0.013850  -0.004882  -0.023619   0.003057
    27  C   -0.045008   0.000000   0.004580  -0.002666   0.065413  -0.097789
    28  C   -0.044259   0.000000  -0.055157   0.002474  -0.035745  -0.097087
    29  C   -0.004581   0.000000  -0.005503  -0.003214  -0.003796  -0.011951
    30  C    0.005436   0.000000   0.025139  -0.009942  -0.006806   0.003109
    31  H    0.045014   0.000000  -0.071747   0.000478   0.129268   0.101403
    32  H    0.045015   0.000000   0.071759  -0.000481   0.129262   0.101403
    33  H    0.044761   0.000000  -0.074612  -0.013882   0.126832   0.101147
    34  H    0.044371   0.000000  -0.147253   0.001361   0.004649   0.100762
    35  C   -0.045893   0.000000  -0.049176  -0.013269   0.040936  -0.098680
    36  C    0.001210   0.000000  -0.010647  -0.019080   0.009296  -0.002840
    37  C   -0.001701   0.000000  -0.003121  -0.006166   0.005147  -0.008939
    38  C   -0.040942   0.000000   0.005138   0.016768  -0.067381  -0.093716
    39  H    0.043035   0.000000  -0.146238  -0.010522   0.001062   0.099465
    40  H    0.044581   0.000000  -0.081173   0.028288  -0.118959   0.100904
    41  C   -0.042768   0.000000  -0.044018  -0.002274  -0.030600  -0.095506
    42  C   -0.040271   0.000000   0.006049  -0.013662   0.036069  -0.092893
    43  C   -0.043653   0.000000   0.044996   0.025058  -0.040936  -0.098864
    44  C   -0.041678   0.000000   0.053891   0.022656  -0.015685  -0.097019
    45  H    0.041944   0.000000  -0.077763   0.027733  -0.120153   0.098286
    46  H    0.044194   0.000000   0.063091   0.065060  -0.118130   0.099553
    47  H    0.044334   0.000000   0.140489   0.048716   0.006746   0.099890
    48  H    0.035354   0.000000   0.079464   0.011396   0.099530   0.096821
       Tot   0.000037   0.000000  -0.000005   0.000135  -0.049669   0.000037
 Hirshfeld charges with hydrogens summed into heavy atoms:
              Q-H       Q-CM5   
     1  C    0.000115   0.003676
     2  C   -0.000244   0.003360
     3  C   -0.004580  -0.011952
     4  C   -0.004876  -0.012102
     5  C    0.005451   0.003119
     6  C    0.005665   0.003057
     7  C   -0.002856   0.000786
     8  C    0.003641   0.007189
     9  C   -0.001698  -0.008937
    10  C    0.001219  -0.002832
    15  C   -0.000820   0.002785
    16  C   -0.004896   0.003937
    17  C    0.002661   0.002875
    18  C    0.000543   0.000691
    23  C    0.000733   0.004390
    24  C    0.000732   0.004389
    25  C   -0.004879  -0.012105
    26  C    0.005662   0.003057
    27  C   -0.000246   0.003358
    28  C    0.000112   0.003674
    29  C   -0.004581  -0.011951
    30  C    0.005436   0.003109
    35  C   -0.002858   0.000785
    36  C    0.001210  -0.002840
    37  C   -0.001701  -0.008939
    38  C    0.003639   0.007187
    41  C   -0.000825   0.002781
    42  C   -0.004917   0.003928
    43  C    0.000540   0.000689
    44  C    0.002656   0.002871
 
 EQQ=  0.00000000000     EQD=  0.00000000000     EDD= 0.190853604504E-01
 EQQ+QD+DD= 0.190853604504E-01
 
 1\1\GINC-CU12\SP\RB3LYP\6-311G(d)\C30H18\WANG\06-Jul-2025\0\\# B3LYP/6
 -311G* Pop=Hirshfeld NOSYMM\\From ../../7helicene_opt.out\\0,1\C,0,3.5
 11054,-0.481982,1.675764\C,0,2.816601,-0.288831,2.833943\C,0,2.820331,
 -0.775883,0.463623\C,0,1.395398,-0.18102,2.815494\C,0,1.399071,-0.7887
 79,0.432785\C,0,0.689195,-0.238866,1.576174\C,0,3.572143,-1.09377,-0.7
 11707\C,0,2.955477,-1.495842,-1.856573\C,0,1.546349,-1.733518,-1.86973
 7\C,0,0.763629,-1.43278,-0.709932\H,0,4.598109,-0.494648,1.672014\H,0,
 3.332645,-0.180583,3.784642\H,0,4.654804,-1.003004,-0.666797\H,0,3.530
 879,-1.713064,-2.753153\C,0,0.936757,-2.339867,-2.995131\C,0,-0.577766
 ,-1.892887,-0.699732\C,0,-1.140736,-2.515157,-1.7969\C,0,-0.389597,-2.
 714593,-2.971768\H,0,1.549333,-2.533845,-3.872638\H,0,-1.170035,-1.783
 534,0.198568\H,0,-2.169253,-2.86189,-1.745457\H,0,-0.84289,-3.189784,-
 3.837501\C,0,-0.681175,0.032423,4.040582\C,0,0.681165,-0.032892,4.0405
 19\C,0,-1.395505,0.180746,2.815638\C,0,-0.68941,0.238598,1.576258\C,0,
 -2.816687,0.288862,2.834233\C,0,-3.511204,0.482421,1.676158\C,0,-2.820
 522,0.77636,0.464\C,0,-1.399265,0.788809,0.433016\H,0,-1.241607,0.0372
 84,4.972053\H,0,1.241683,-0.037783,4.971938\H,0,-3.332662,0.180615,3.7
 84969\H,0,-4.598256,0.495394,1.672522\C,0,-3.572348,1.094721,-0.711196
 \C,0,-0.7637,1.432645,-0.709707\C,0,-1.546438,1.733891,-1.869363\C,0,-
 2.955663,1.496787,-1.856059\H,0,-4.655036,1.00433,-0.666185\H,0,-3.531
 086,1.714366,-2.752539\C,0,-0.93671,2.340117,-2.994749\C,0,0.577957,1.
 89198,-0.699659\C,0,0.389839,2.714171,-2.971525\C,0,1.141076,2.514128,
 -1.79682\H,0,-1.549312,2.534515,-3.872145\H,0,0.843244,3.189256,-3.837
 257\H,0,2.169795,2.860283,-1.745501\H,0,1.170328,1.782095,0.198517\\Ve
 rsion=ES64L-G16RevB.01\HF=-1154.3006212\RMSD=8.935e-09\Dipole=0.000110
 4,-0.0000493,-0.0488955\Quadrupole=7.4828691,-13.7271853,6.2443162,1.8
 900712,-0.0013235,-0.0007286\PG=C01 [X(C30H18)]\\@


 THE UNDERLYING PHYSICAL LAWS NECESSARY FOR THE 
 MATHEMATICAL THEORY OF A LARGE PART OF PHYSICS AND THE
 WHOLE OF CHEMISTRY ARE THUS COMPLETELY KNOWN, AND THE
 DIFFICULTY IS ONLY THAT THE EXACT APPLICATION OF THESE
 LAWS LEADS TO EQUATIONS MUCH TOO COMPLICATED 
 TO BE SOLUBLE.

                                        -- P. A. M. DIRAC, 1929
 Job cpu time:       0 days  0 hours 24 minutes 18.2 seconds.
 Elapsed time:       0 days  0 hours  0 minutes 52.6 seconds.
 File lengths (MBytes):  RWF=    194 Int=      0 D2E=      0 Chk=     22 Scr=      1
 Normal termination of Gaussian 16 at Sun Jul  6 01:21:26 2025.
