 Entering Gaussian System, Link 0=g16
 Initial command:
 /opt/software/g16/l1.exe "/tmp/8circulene_sgp-10866.tmp/Gau-47830.inp" -scrdir="/tmp/8circulene_sgp-10866.tmp/"
 Entering Link 1 = /opt/software/g16/l1.exe PID=     47831.
  
 Copyright (c) 1988-2017, Gaussian, Inc.  All Rights Reserved.
  
 This is part of the Gaussian(R) 16 program.  It is based on
 the Gaussian(R) 09 system (copyright 2009, Gaussian, Inc.),
 the Gaussian(R) 03 system (copyright 2003, Gaussian, Inc.),
 the Gaussian(R) 98 system (copyright 1998, Gaussian, Inc.),
 the Gaussian(R) 94 system (copyright 1995, Gaussian, Inc.),
 the Gaussian 92(TM) system (copyright 1992, Gaussian, Inc.),
 the Gaussian 90(TM) system (copyright 1990, Gaussian, Inc.),
 the Gaussian 88(TM) system (copyright 1988, Gaussian, Inc.),
 the Gaussian 86(TM) system (copyright 1986, Carnegie Mellon
 University), and the Gaussian 82(TM) system (copyright 1983,
 Carnegie Mellon University). Gaussian is a federally registered
 trademark of Gaussian, Inc.
  
 This software contains proprietary and confidential information,
 including trade secrets, belonging to Gaussian, Inc.
  
 This software is provided under written license and may be
 used, copied, transmitted, or stored only in accord with that
 written license.
  
 The following legend is applicable only to US Government
 contracts under FAR:
  
                    RESTRICTED RIGHTS LEGEND
  
 Use, reproduction and disclosure by the US Government is
 subject to restrictions as set forth in subparagraphs (a)
 and (c) of the Commercial Computer Software - Restricted
 Rights clause in FAR 52.227-19.
  
 Gaussian, Inc.
 340 Quinnipiac St., Bldg. 40, Wallingford CT 06492
  
  
 ---------------------------------------------------------------
 Warning -- This program may not be used in any manner that
 competes with the business of Gaussian, Inc. or will provide
 assistance to any competitor of Gaussian, Inc.  The licensee
 of this program is prohibited from giving any competitor of
 Gaussian, Inc. access to this program.  By using this program,
 the user acknowledges that Gaussian, Inc. is engaged in the
 business of creating and licensing software in the field of
 computational chemistry and represents and warrants to the
 licensee that it is not a competitor of Gaussian, Inc. and that
 it will not use this program in any manner prohibited above.
 ---------------------------------------------------------------
  

 Cite this work as:
 Gaussian 16, Revision B.01,
 M. J. Frisch, G. W. Trucks, H. B. Schlegel, G. E. Scuseria, 
 M. A. Robb, J. R. Cheeseman, G. Scalmani, V. Barone, 
 G. A. Petersson, H. Nakatsuji, X. Li, M. Caricato, A. V. Marenich, 
 J. Bloino, B. G. Janesko, R. Gomperts, B. Mennucci, H. P. Hratchian, 
 J. V. Ortiz, A. F. Izmaylov, J. L. Sonnenberg, D. Williams-Young, 
 F. Ding, F. Lipparini, F. Egidi, J. Goings, B. Peng, A. Petrone, 
 T. Henderson, D. Ranasinghe, V. G. Zakrzewski, J. Gao, N. Rega, 
 G. Zheng, W. Liang, M. Hada, M. Ehara, K. Toyota, R. Fukuda, 
 J. Hasegawa, M. Ishida, T. Nakajima, Y. Honda, O. Kitao, H. Nakai, 
 T. Vreven, K. Throssell, J. A. Montgomery, Jr., J. E. Peralta, 
 F. Ogliaro, M. J. Bearpark, J. J. Heyd, E. N. Brothers, K. N. Kudin, 
 V. N. Staroverov, T. A. Keith, R. Kobayashi, J. Normand, 
 K. Raghavachari, A. P. Rendell, J. C. Burant, S. S. Iyengar, 
 J. Tomasi, M. Cossi, J. M. Millam, M. Klene, C. Adamo, R. Cammi, 
 J. W. Ochterski, R. L. Martin, K. Morokuma, O. Farkas, 
 J. B. Foresman, and D. J. Fox, Gaussian, Inc., Wallingford CT, 2016.
 
 ******************************************
 Gaussian 16:  ES64L-G16RevB.01 20-Dec-2017
                 7-Jul-2025 
 ******************************************
 %nproc=28
 Will use up to   28 processors via shared memory.
 ------------------------------------
 # B3LYP/6-311G* Pop=Hirshfeld NOSYMM
 ------------------------------------
 1/38=1,172=1/1;
 2/12=2,15=1,17=6,18=5,40=1/2;
 3/5=4,6=6,7=1,11=2,25=1,30=1,74=-5/1,2,3;
 4//1;
 5/5=2,38=5/2;
 6/7=2,8=2,9=2,10=2,28=1,79=1/1;
 99/5=1,9=1/99;
 -----------------------------
 From ../../8circulene_opt.out
 -----------------------------
 Symbolic Z-matrix:
 Charge =  0 Multiplicity = 1
 6                    -1.37314  -2.71009   1.0202 
 6                    -0.6809   -3.5426    1.93831 
 6                     0.6809   -3.5426    1.93831 
 6                     1.37314  -2.71009   1.0202 
 6                     2.71009  -1.37314  -1.0202 
 6                     3.5426   -0.6809   -1.93831 
 6                     3.5426    0.6809   -1.93831 
 6                     2.71009   1.37314  -1.0202 
 6                     1.37314   2.71009   1.0202 
 6                     0.6809    3.5426    1.93831 
 6                    -0.6809    3.5426    1.93831 
 6                    -1.37314   2.71009   1.0202 
 6                    -2.71009   1.37314  -1.0202 
 6                    -3.5426    0.6809   -1.93831 
 6                    -3.5426   -0.6809   -1.93831 
 6                    -2.71009  -1.37314  -1.0202 
 6                    -3.18402  -2.64082  -0.55906 
 6                    -2.64082  -3.18402   0.55906 
 6                     2.64082  -3.18402   0.55906 
 6                     3.18402  -2.64082  -0.55906 
 6                     3.18402   2.64082  -0.55906 
 6                     2.64082   3.18402   0.55906 
 6                    -2.64082   3.18402   0.55906 
 6                    -3.18402   2.64082  -0.55906 
 1                    -1.2437   -4.27672   2.5091 
 1                     1.2437   -4.27672   2.5091 
 1                     4.27672  -1.2437   -2.5091 
 1                     4.27672   1.2437   -2.5091 
 1                     1.2437    4.27672   2.5091 
 1                    -1.2437    4.27672   2.5091 
 1                    -4.27672   1.2437   -2.5091 
 1                    -4.27672  -1.2437   -2.5091 
 1                    -4.06505  -3.0685   -1.02982 
 1                    -3.0685   -4.06505   1.02982 
 1                     3.0685   -4.06505   1.02982 
 1                     4.06505  -3.0685   -1.02982 
 1                     4.06505   3.0685   -1.02982 
 1                     3.0685    4.06505   1.02982 
 1                    -3.0685    4.06505   1.02982 
 1                    -4.06505   3.0685   -1.02982 
 6                    -0.72249   1.59658   0.4007 
 6                     0.72249   1.59658   0.4007 
 6                    -1.59658   0.72249  -0.4007 
 6                    -1.59658  -0.72249  -0.4007 
 6                    -0.72249  -1.59658   0.4007 
 6                     0.72249  -1.59658   0.4007 
 6                     1.59658   0.72249  -0.4007 
 6                     1.59658  -0.72249  -0.4007 
 
                          Input orientation:                          
 ---------------------------------------------------------------------
 Center     Atomic      Atomic             Coordinates (Angstroms)
 Number     Number       Type             X           Y           Z
 ---------------------------------------------------------------------
      1          6           0       -1.373138   -2.710090    1.020196
      2          6           0       -0.680901   -3.542601    1.938306
      3          6           0        0.680901   -3.542601    1.938306
      4          6           0        1.373138   -2.710090    1.020196
      5          6           0        2.710090   -1.373138   -1.020196
      6          6           0        3.542601   -0.680901   -1.938306
      7          6           0        3.542601    0.680901   -1.938306
      8          6           0        2.710090    1.373138   -1.020196
      9          6           0        1.373138    2.710090    1.020196
     10          6           0        0.680901    3.542601    1.938306
     11          6           0       -0.680901    3.542601    1.938306
     12          6           0       -1.373138    2.710090    1.020196
     13          6           0       -2.710090    1.373138   -1.020196
     14          6           0       -3.542601    0.680901   -1.938306
     15          6           0       -3.542601   -0.680901   -1.938306
     16          6           0       -2.710090   -1.373138   -1.020196
     17          6           0       -3.184022   -2.640820   -0.559062
     18          6           0       -2.640820   -3.184022    0.559062
     19          6           0        2.640820   -3.184022    0.559062
     20          6           0        3.184022   -2.640820   -0.559062
     21          6           0        3.184022    2.640820   -0.559062
     22          6           0        2.640820    3.184022    0.559062
     23          6           0       -2.640820    3.184022    0.559062
     24          6           0       -3.184022    2.640820   -0.559062
     25          1           0       -1.243695   -4.276720    2.509102
     26          1           0        1.243695   -4.276720    2.509102
     27          1           0        4.276720   -1.243695   -2.509102
     28          1           0        4.276720    1.243695   -2.509102
     29          1           0        1.243695    4.276720    2.509102
     30          1           0       -1.243695    4.276720    2.509102
     31          1           0       -4.276720    1.243695   -2.509102
     32          1           0       -4.276720   -1.243695   -2.509102
     33          1           0       -4.065054   -3.068501   -1.029818
     34          1           0       -3.068501   -4.065054    1.029818
     35          1           0        3.068501   -4.065054    1.029818
     36          1           0        4.065054   -3.068501   -1.029818
     37          1           0        4.065054    3.068501   -1.029818
     38          1           0        3.068501    4.065054    1.029818
     39          1           0       -3.068501    4.065054    1.029818
     40          1           0       -4.065054    3.068501   -1.029818
     41          6           0       -0.722494    1.596579    0.400703
     42          6           0        0.722494    1.596579    0.400703
     43          6           0       -1.596579    0.722494   -0.400703
     44          6           0       -1.596579   -0.722494   -0.400703
     45          6           0       -0.722494   -1.596579    0.400703
     46          6           0        0.722494   -1.596579    0.400703
     47          6           0        1.596579    0.722494   -0.400703
     48          6           0        1.596579   -0.722494   -0.400703
 ---------------------------------------------------------------------
                    Distance matrix (angstroms):
                    1          2          3          4          5
     1  C    0.000000
     2  C    1.419575   0.000000
     3  C    2.398974   1.361802   0.000000
     4  C    2.746276   2.398974   1.419575   0.000000
     5  C    4.756405   4.995811   4.192483   2.781741   0.000000
     6  C    6.085625   6.407450   5.604175   4.192483   1.419575
     7  C    6.664536   7.120678   6.407450   4.995811   2.398974
     8  C    6.124435   6.664536   6.085625   4.756405   2.746276
     9  C    6.076215   6.645160   6.357536   5.420180   4.756405
    10  C    6.645160   7.214887   7.085202   6.357536   6.085625
    11  C    6.357536   7.085202   7.214887   6.645160   6.664536
    12  C    5.420180   6.357536   6.645160   6.076215   6.124435
    13  C    4.756405   6.085625   6.664536   6.124435   6.076215
    14  C    4.995811   6.407450   7.120678   6.664536   6.645160
    15  C    4.192483   5.604175   6.407450   6.085625   6.357536
    16  C    2.781741   4.192483   4.995811   4.756405   5.420180
    17  C    2.403779   3.649064   4.689103   4.823542   6.046505
    18  C    1.429781   2.423257   3.614516   4.068060   5.865628
    19  C    4.068060   3.614516   2.423257   1.429781   2.403779
    20  C    4.823542   4.689103   3.649064   2.403779   1.429781
    21  C    7.203749   7.707735   7.123002   5.865628   4.068060
    22  C    7.145982   7.627818   7.140802   6.046505   4.823542
    23  C    6.046505   7.140802   7.627818   7.145982   7.203749
    24  C    5.865628   7.123002   7.707735   7.203749   7.145982
    25  H    2.165162   1.086957   2.137477   3.393963   6.043108
    26  H    3.393963   2.137477   1.086957   2.165162   4.799692
    27  H    6.821082   7.045737   6.163953   4.799692   2.165162
    28  H    7.746564   8.201590   7.457746   6.043108   3.393963
    29  H    7.607902   8.072897   7.860301   7.144866   6.821082
    30  H    7.144866   7.860301   8.072897   7.607902   7.746564
    31  H    6.043108   7.457746   8.201590   7.746564   7.607902
    32  H    4.799692   6.163953   7.045737   6.821082   7.144866
    33  H    3.402562   4.526259   5.617706   5.822796   6.984048
    34  H    2.170317   2.607478   3.893112   4.643724   6.696348
    35  H    4.643724   3.893112   2.607478   2.170317   3.402562
    36  H    5.822796   5.617706   4.526259   3.402562   2.170317
    37  H    8.195645   8.662593   7.998057   6.696348   4.643724
    38  H    8.101285   8.529934   8.025111   6.984048   5.822796
    39  H    6.984048   8.025111   8.529934   8.101285   8.195645
    40  H    6.696348   7.998057   8.662593   8.195645   8.101285
    41  C    4.399376   5.364431   5.544809   4.829373   4.756134
    42  C    4.829373   5.544809   5.364431   4.399376   3.845609
    43  C    3.721762   4.949794   5.371118   4.756134   4.829373
    44  C    2.453450   3.776564   4.314033   3.845609   4.399376
    45  C    1.430740   2.480515   2.849692   2.452621   3.721762
    46  C    2.452621   2.849692   2.480515   1.430740   2.453450
    47  C    4.756134   5.371118   4.949794   3.721762   2.452621
    48  C    3.845609   4.314033   3.776564   2.453450   1.430740
                    6          7          8          9         10
     6  C    0.000000
     7  C    1.361802   0.000000
     8  C    2.398974   1.419575   0.000000
     9  C    4.995811   4.192483   2.781741   0.000000
    10  C    6.407450   5.604175   4.192483   1.419575   0.000000
    11  C    7.120678   6.407450   4.995811   2.398974   1.361802
    12  C    6.664536   6.085625   4.756405   2.746276   2.398974
    13  C    6.645160   6.357536   5.420180   4.756405   4.995811
    14  C    7.214887   7.085202   6.357536   6.085625   6.407450
    15  C    7.085202   7.214887   6.645160   6.664536   7.120678
    16  C    6.357536   6.645160   6.076215   6.124435   6.664536
    17  C    7.140802   7.627818   7.145982   7.203749   7.707735
    18  C    7.123002   7.707735   7.203749   7.145982   7.627818
    19  C    3.649064   4.689103   4.823542   6.046505   7.140802
    20  C    2.423257   3.614516   4.068060   5.865628   7.123002
    21  C    3.614516   2.423257   1.429781   2.403779   3.649064
    22  C    4.689103   3.649064   2.403779   1.429781   2.423257
    23  C    7.707735   7.123002   5.865628   4.068060   3.614516
    24  C    7.627818   7.140802   6.046505   4.823542   4.689103
    25  H    7.457746   8.201590   7.746564   7.607902   8.072897
    26  H    6.163953   7.045737   6.821082   7.144866   7.860301
    27  H    1.086957   2.137477   3.393963   6.043108   7.457746
    28  H    2.137477   1.086957   2.165162   4.799692   6.163953
    29  H    7.045737   6.163953   4.799692   2.165162   1.086957
    30  H    8.201590   7.457746   6.043108   3.393963   2.137477
    31  H    8.072897   7.860301   7.144866   6.821082   7.045737
    32  H    7.860301   8.072897   7.607902   7.746564   8.201590
    33  H    8.025111   8.529934   8.101285   8.195645   8.662593
    34  H    7.998057   8.662593   8.195645   8.101285   8.529934
    35  H    4.526259   5.617706   5.822796   6.984048   8.025111
    36  H    2.607478   3.893112   4.643724   6.696348   7.998057
    37  H    3.893112   2.607478   2.170317   3.402562   4.526259
    38  H    5.617706   4.526259   3.402562   2.170317   2.607478
    39  H    8.662593   7.998057   6.696348   4.643724   3.893112
    40  H    8.529934   8.025111   6.984048   5.822796   5.617706
    41  C    5.371118   4.949794   3.721762   2.452621   2.849692
    42  C    4.314033   3.776564   2.453450   1.430740   2.480515
    43  C    5.544809   5.364431   4.399376   3.845609   4.314033
    44  C    5.364431   5.544809   4.829373   4.756134   5.371118
    45  C    4.949794   5.371118   4.756134   4.829373   5.544809
    46  C    3.776564   4.314033   3.845609   4.399376   5.364431
    47  C    2.849692   2.480515   1.430740   2.453450   3.776564
    48  C    2.480515   2.849692   2.452621   3.721762   4.949794
                   11         12         13         14         15
    11  C    0.000000
    12  C    1.419575   0.000000
    13  C    4.192483   2.781741   0.000000
    14  C    5.604175   4.192483   1.419575   0.000000
    15  C    6.407450   4.995811   2.398974   1.361802   0.000000
    16  C    6.085625   4.756405   2.746276   2.398974   1.419575
    17  C    7.123002   5.865628   4.068060   3.614516   2.423257
    18  C    7.140802   6.046505   4.823542   4.689103   3.649064
    19  C    7.627818   7.145982   7.203749   7.707735   7.123002
    20  C    7.707735   7.203749   7.145982   7.627818   7.140802
    21  C    4.689103   4.823542   6.046505   7.140802   7.627818
    22  C    3.614516   4.068060   5.865628   7.123002   7.707735
    23  C    2.423257   1.429781   2.403779   3.649064   4.689103
    24  C    3.649064   2.403779   1.429781   2.423257   3.614516
    25  H    7.860301   7.144866   6.821082   7.045737   6.163953
    26  H    8.072897   7.607902   7.746564   8.201590   7.457746
    27  H    8.201590   7.746564   7.607902   8.072897   7.860301
    28  H    7.045737   6.821082   7.144866   7.860301   8.072897
    29  H    2.137477   3.393963   6.043108   7.457746   8.201590
    30  H    1.086957   2.165162   4.799692   6.163953   7.045737
    31  H    6.163953   4.799692   2.165162   1.086957   2.137477
    32  H    7.457746   6.043108   3.393963   2.137477   1.086957
    33  H    7.998057   6.696348   4.643724   3.893112   2.607478
    34  H    8.025111   6.984048   5.822796   5.617706   4.526259
    35  H    8.529934   8.101285   8.195645   8.662593   7.998057
    36  H    8.662593   8.195645   8.101285   8.529934   8.025111
    37  H    5.617706   5.822796   6.984048   8.025111   8.529934
    38  H    3.893112   4.643724   6.696348   7.998057   8.662593
    39  H    2.607478   2.170317   3.402562   4.526259   5.617706
    40  H    4.526259   3.402562   2.170317   2.607478   3.893112
    41  C    2.480515   1.430740   2.453450   3.776564   4.314033
    42  C    2.849692   2.452621   3.721762   4.949794   5.371118
    43  C    3.776564   2.453450   1.430740   2.480515   2.849692
    44  C    4.949794   3.721762   2.452621   2.849692   2.480515
    45  C    5.364431   4.399376   3.845609   4.314033   3.776564
    46  C    5.544809   4.829373   4.756134   5.371118   4.949794
    47  C    4.314033   3.845609   4.399376   5.364431   5.544809
    48  C    5.371118   4.756134   4.829373   5.544809   5.364431
                   16         17         18         19         20
    16  C    0.000000
    17  C    1.429781   0.000000
    18  C    2.403779   1.356591   0.000000
    19  C    5.865628   5.956010   5.281640   0.000000
    20  C    6.046505   6.368044   5.956010   1.356591   0.000000
    21  C    7.145982   8.273313   8.313108   5.956010   5.281640
    22  C    7.203749   8.313108   8.273313   6.368044   5.956010
    23  C    4.823542   5.956010   6.368044   8.273313   8.313108
    24  C    4.068060   5.281640   5.956010   8.313108   8.273313
    25  H    4.799692   3.981792   2.636020   4.481752   5.629785
    26  H    6.043108   5.629785   4.481752   2.636020   3.981792
    27  H    7.144866   7.836918   7.812225   3.981792   2.636020
    28  H    7.607902   8.634511   8.767592   5.629785   4.481752
    29  H    7.746564   8.767592   8.634511   7.836918   7.812225
    30  H    6.821082   7.812225   7.836918   8.634511   8.767592
    31  H    3.393963   4.481752   5.629785   8.767592   8.634511
    32  H    2.165162   2.636020   3.981792   7.812225   7.836918
    33  H    2.170317   1.086618   2.136897   6.892505   7.276924
    34  H    3.402562   2.136897   1.086618   5.796048   6.606590
    35  H    6.696348   6.606590   5.796048   1.086618   2.136897
    36  H    6.984048   7.276924   6.892505   2.136897   1.086618
    37  H    8.101285   9.239430   9.305231   6.606590   5.796048
    38  H    8.195645   9.305231   9.239430   7.276924   6.892505
    39  H    5.822796   6.892505   7.276924   9.239430   9.305231
    40  H    4.643724   5.796048   6.606590   9.305231   9.239430
    41  C    3.845609   4.993578   5.153562   5.847316   5.842736
    42  C    4.756134   5.842736   5.847316   5.153562   4.993578
    43  C    2.452621   3.722490   4.156014   5.842736   5.847316
    44  C    1.430740   2.495000   2.840899   4.993578   5.153562
    45  C    2.453450   2.840899   2.495000   3.722490   4.156014
    46  C    3.721762   4.156014   3.722490   2.495000   2.840899
    47  C    4.829373   5.847316   5.842736   4.156014   3.722490
    48  C    4.399376   5.153562   4.993578   2.840899   2.495000
                   21         22         23         24         25
    21  C    0.000000
    22  C    1.356591   0.000000
    23  C    5.956010   5.281640   0.000000
    24  C    6.368044   5.956010   1.356591   0.000000
    25  H    8.767592   8.634511   7.836918   7.812225   0.000000
    26  H    7.812225   7.836918   8.634511   8.767592   2.487390
    27  H    4.481752   5.629785   8.767592   8.634511   8.053359
    28  H    2.636020   3.981792   7.812225   7.836918   9.280751
    29  H    3.981792   2.636020   4.481752   5.629785   8.907774
    30  H    5.629785   4.481752   2.636020   3.981792   8.553440
    31  H    7.836918   7.812225   3.981792   2.636020   8.053359
    32  H    8.634511   8.767592   5.629785   4.481752   6.601580
    33  H    9.239430   9.305231   6.606590   5.796048   4.684423
    34  H    9.305231   9.239430   7.276924   6.892505   2.358601
    35  H    6.892505   7.276924   9.239430   9.305231   4.563783
    36  H    5.796048   6.606590   9.305231   9.239430   6.493579
    37  H    1.086618   2.136897   6.892505   7.276924   9.729288
    38  H    2.136897   1.086618   5.796048   6.606590   9.506235
    39  H    6.606590   5.796048   1.086618   2.136897   8.666221
    40  H    7.276924   6.892505   2.136897   1.086618   8.627647
    41  C    4.156014   3.722490   2.495000   2.840899   6.262000
    42  C    2.840899   2.495000   3.722490   4.156014   6.542697
    43  C    5.153562   4.993578   2.840899   2.495000   5.795139
    44  C    5.847316   5.842736   4.156014   3.722490   4.606953
    45  C    5.842736   5.847316   5.153562   4.993578   3.449660
    46  C    4.993578   5.153562   5.847316   5.842736   3.936293
    47  C    2.495000   2.840899   4.993578   5.153562   6.444087
    48  C    3.722490   4.156014   5.842736   5.847316   5.400615
                   26         27         28         29         30
    26  H    0.000000
    27  H    6.601580   0.000000
    28  H    8.053359   2.487390   0.000000
    29  H    8.553440   8.053359   6.601580   0.000000
    30  H    8.907774   9.280751   8.053359   2.487390   0.000000
    31  H    9.280751   8.907774   8.553440   8.053359   6.601580
    32  H    8.053359   8.553440   8.907774   9.280751   8.053359
    33  H    6.493579   8.666221   9.506235   9.729288   8.627647
    34  H    4.563783   8.627647   9.729288   9.506235   8.666221
    35  H    2.358601   4.684423   6.493579   8.666221   9.506235
    36  H    4.684423   2.358601   4.563783   8.627647   9.729288
    37  H    8.627647   4.563783   2.358601   4.684423   6.493579
    38  H    8.666221   6.493579   4.684423   2.358601   4.563783
    39  H    9.506235   9.729288   8.627647   4.563783   2.358601
    40  H    9.729288   9.506235   8.666221   6.493579   4.684423
    41  C    6.542697   6.444087   5.795139   3.936293   3.449660
    42  C    6.262000   5.400615   4.606953   3.449660   3.936293
    43  C    6.444087   6.542697   6.262000   5.400615   4.606953
    44  C    5.400615   6.262000   6.542697   6.444087   5.795139
    45  C    3.936293   5.795139   6.444087   6.542697   6.262000
    46  C    3.449660   4.606953   5.400615   6.262000   6.542697
    47  C    5.795139   3.936293   3.449660   4.606953   5.400615
    48  C    4.606953   3.449660   3.936293   5.795139   6.444087
                   31         32         33         34         35
    31  H    0.000000
    32  H    2.487390   0.000000
    33  H    4.563783   2.358601   0.000000
    34  H    6.493579   4.684423   2.495663   0.000000
    35  H    9.729288   8.627647   7.491517   6.137002   0.000000
    36  H    9.506235   8.666221   8.130108   7.491517   2.495663
    37  H    8.666221   9.506235  10.186336  10.296471   7.491517
    38  H    8.627647   9.729288  10.296471  10.186336   8.130108
    39  H    4.684423   6.493579   7.491517   8.130108  10.186336
    40  H    2.358601   4.563783   6.137002   7.491517  10.296471
    41  C    4.606953   5.400615   5.914564   6.160651   6.842625
    42  C    5.795139   6.444087   6.835933   6.842625   6.160651
    43  C    3.449660   3.936293   4.567362   5.208988   6.835933
    44  C    3.936293   3.449660   3.463077   3.922455   5.914564
    45  C    5.400615   4.606953   3.922455   3.463077   4.567362
    46  C    6.444087   5.795139   5.208988   4.567362   3.463077
    47  C    6.262000   6.542697   6.842625   6.835933   5.208988
    48  C    6.542697   6.262000   6.160651   5.914564   3.922455
                   36         37         38         39         40
    36  H    0.000000
    37  H    6.137002   0.000000
    38  H    7.491517   2.495663   0.000000
    39  H   10.296471   7.491517   6.137002   0.000000
    40  H   10.186336   8.130108   7.491517   2.495663   0.000000
    41  C    6.835933   5.208988   4.567362   3.463077   3.922455
    42  C    5.914564   3.922455   3.463077   4.567362   5.208988
    43  C    6.842625   6.160651   5.914564   3.922455   3.463077
    44  C    6.160651   6.842625   6.835933   5.208988   4.567362
    45  C    5.208988   6.835933   6.842625   6.160651   5.914564
    46  C    3.922455   5.914564   6.160651   6.842625   6.835933
    47  C    4.567362   3.463077   3.922455   5.914564   6.160651
    48  C    3.463077   4.567362   5.208988   6.835933   6.842625
                   41         42         43         44         45
    41  C    0.000000
    42  C    1.444988   0.000000
    43  C    1.473194   2.604683   0.000000
    44  C    2.604683   3.376159   1.444988   0.000000
    45  C    3.193158   3.504889   2.604683   1.473194   0.000000
    46  C    3.504889   3.193158   3.376159   2.604683   1.444988
    47  C    2.604683   1.473194   3.193158   3.504889   3.376159
    48  C    3.376159   2.604683   3.504889   3.193158   2.604683
                   46         47         48
    46  C    0.000000
    47  C    2.604683   0.000000
    48  C    1.473194   1.444988   0.000000
 Symmetry turned off by external request.
 Stoichiometry    C32H16
 Framework group  D2D[X(C32H16)]
 Deg. of freedom    18
 Full point group                 D2D     NOp   8
 Rotational constants (GHZ):           0.1813770           0.1813770           0.1137715
 Standard basis: 6-311G(d) (5D, 7F)
   624 basis functions,  1104 primitive gaussians,   656 cartesian basis functions
   104 alpha electrons      104 beta electrons
       nuclear repulsion energy      2922.0223820061 Hartrees.
 NAtoms=   48 NActive=   48 NUniq=   48 SFac= 1.00D+00 NAtFMM=   60 NAOKFM=F Big=F
 Integral buffers will be    131072 words long.
 Raffenetti 2 integral format.
 Two-electron integral symmetry is turned off.
 One-electron integrals computed using PRISM.
 NBasis=   624 RedAO= T EigKep=  4.85D-05  NBF=   624
 NBsUse=   624 1.00D-06 EigRej= -1.00D+00 NBFU=   624
 ExpMin= 1.03D-01 ExpMax= 4.56D+03 ExpMxC= 6.82D+02 IAcc=3 IRadAn=         5 AccDes= 0.00D+00
 Harris functional with IExCor=  402 and IRadAn=       5 diagonalized for initial guess.
 HarFok:  IExCor=  402 AccDes= 0.00D+00 IRadAn=         5 IDoV= 1 UseB2=F ITyADJ=14
 ICtDFT=  3500011 ScaDFX=  1.000000  1.000000  1.000000  1.000000
 FoFCou: FMM=F IPFlag=           0 FMFlag=      100000 FMFlg1=           0
         NFxFlg=           0 DoJE=T BraDBF=F KetDBF=T FulRan=T
         wScrn=  0.000000 ICntrl=       500 IOpCl=  0 I1Cent=   200000004 NGrid=           0
         NMat0=    1 NMatS0=      1 NMatT0=    0 NMatD0=    1 NMtDS0=    0 NMtDT0=    0
 Symmetry not used in FoFCou.
 Requested convergence on RMS density matrix=1.00D-08 within 128 cycles.
 Requested convergence on MAX density matrix=1.00D-06.
 Requested convergence on             energy=1.00D-06.
 No special actions if energy rises.
 Integral accuracy reduced to 1.0D-05 until final iterations.
 Initial convergence to 1.0D-05 achieved.  Increase integral accuracy.
 SCF Done:  E(RB3LYP) =  -1229.25628842     A.U. after   15 cycles
            NFock= 15  Conv=0.54D-08     -V/T= 2.0044

 **********************************************************************

            Population analysis using the SCF Density.

 **********************************************************************

 Alpha  occ. eigenvalues --  -10.19626 -10.19619 -10.19619 -10.19598 -10.19593
 Alpha  occ. eigenvalues --  -10.19570 -10.19570 -10.19559 -10.18603 -10.18602
 Alpha  occ. eigenvalues --  -10.18602 -10.18602 -10.18601 -10.18601 -10.18601
 Alpha  occ. eigenvalues --  -10.18600 -10.17639 -10.17639 -10.17639 -10.17639
 Alpha  occ. eigenvalues --  -10.17572 -10.17572 -10.17572 -10.17572 -10.17527
 Alpha  occ. eigenvalues --  -10.17527 -10.17527 -10.17526 -10.17457 -10.17457
 Alpha  occ. eigenvalues --  -10.17457 -10.17457  -0.90111  -0.88272  -0.88272
 Alpha  occ. eigenvalues --   -0.85168  -0.84851  -0.81243  -0.81243  -0.79865
 Alpha  occ. eigenvalues --   -0.77715  -0.76713  -0.76713  -0.76103  -0.72369
 Alpha  occ. eigenvalues --   -0.72369  -0.71334  -0.70999  -0.65422  -0.65406
 Alpha  occ. eigenvalues --   -0.61876  -0.61876  -0.61687  -0.61687  -0.61342
 Alpha  occ. eigenvalues --   -0.55879  -0.55610  -0.55610  -0.55553  -0.53489
 Alpha  occ. eigenvalues --   -0.51601  -0.51468  -0.50456  -0.48704  -0.48704
 Alpha  occ. eigenvalues --   -0.47603  -0.47603  -0.45518  -0.45518  -0.45172
 Alpha  occ. eigenvalues --   -0.44129  -0.43696  -0.42897  -0.42851  -0.42851
 Alpha  occ. eigenvalues --   -0.42437  -0.41844  -0.41570  -0.39801  -0.39801
 Alpha  occ. eigenvalues --   -0.39372  -0.39372  -0.39031  -0.37230  -0.37170
 Alpha  occ. eigenvalues --   -0.36951  -0.36951  -0.34836  -0.34327  -0.33824
 Alpha  occ. eigenvalues --   -0.33313  -0.32613  -0.32613  -0.31207  -0.31207
 Alpha  occ. eigenvalues --   -0.30319  -0.26866  -0.26727  -0.26727  -0.25826
 Alpha  occ. eigenvalues --   -0.21547  -0.21200  -0.21200  -0.18914
 Alpha virt. eigenvalues --   -0.08034  -0.05128  -0.03675  -0.03675  -0.00921
 Alpha virt. eigenvalues --   -0.00804  -0.00804   0.02428   0.02941   0.04063
 Alpha virt. eigenvalues --    0.04596   0.04596   0.06050   0.06050   0.06168
 Alpha virt. eigenvalues --    0.06401   0.07346   0.07346   0.08296   0.08695
 Alpha virt. eigenvalues --    0.10437   0.10988   0.10988   0.11755   0.12084
 Alpha virt. eigenvalues --    0.12876   0.13702   0.13702   0.15403   0.16107
 Alpha virt. eigenvalues --    0.16107   0.17180   0.18483   0.20478   0.21179
 Alpha virt. eigenvalues --    0.21179   0.24285   0.24285   0.24299   0.24903
 Alpha virt. eigenvalues --    0.25350   0.25701   0.27267   0.27267   0.29411
 Alpha virt. eigenvalues --    0.30158   0.30158   0.30320   0.30844   0.30844
 Alpha virt. eigenvalues --    0.30936   0.32455   0.32455   0.33599   0.34207
 Alpha virt. eigenvalues --    0.34243   0.35037   0.35805   0.36013   0.36386
 Alpha virt. eigenvalues --    0.36386   0.37136   0.37325   0.37325   0.37391
 Alpha virt. eigenvalues --    0.38102   0.38631   0.38631   0.38869   0.39371
 Alpha virt. eigenvalues --    0.39379   0.39380   0.39380   0.40645   0.40645
 Alpha virt. eigenvalues --    0.41237   0.41446   0.41446   0.42385   0.43188
 Alpha virt. eigenvalues --    0.43978   0.44153   0.44725   0.44822   0.44822
 Alpha virt. eigenvalues --    0.45027   0.45174   0.45938   0.45938   0.46770
 Alpha virt. eigenvalues --    0.46891   0.47342   0.47611   0.47611   0.47979
 Alpha virt. eigenvalues --    0.49113   0.49183   0.49183   0.49788   0.49788
 Alpha virt. eigenvalues --    0.50823   0.51374   0.51399   0.51698   0.51698
 Alpha virt. eigenvalues --    0.52377   0.52377   0.52879   0.52879   0.53074
 Alpha virt. eigenvalues --    0.53383   0.54341   0.55418   0.55418   0.55737
 Alpha virt. eigenvalues --    0.57782   0.57938   0.58620   0.59036   0.59036
 Alpha virt. eigenvalues --    0.59442   0.59599   0.60731   0.61116   0.61116
 Alpha virt. eigenvalues --    0.61569   0.61815   0.61937   0.62427   0.62427
 Alpha virt. eigenvalues --    0.64262   0.64269   0.64395   0.64395   0.65951
 Alpha virt. eigenvalues --    0.66521   0.66521   0.66890   0.67075   0.68320
 Alpha virt. eigenvalues --    0.68320   0.69104   0.69104   0.69429   0.70647
 Alpha virt. eigenvalues --    0.70647   0.71024   0.71862   0.72922   0.74047
 Alpha virt. eigenvalues --    0.74749   0.75360   0.75360   0.76921   0.76921
 Alpha virt. eigenvalues --    0.77619   0.78088   0.78253   0.79007   0.79007
 Alpha virt. eigenvalues --    0.79799   0.79799   0.79816   0.80226   0.80306
 Alpha virt. eigenvalues --    0.80659   0.80659   0.81103   0.81477   0.83642
 Alpha virt. eigenvalues --    0.83839   0.84091   0.84091   0.84287   0.84287
 Alpha virt. eigenvalues --    0.84656   0.84922   0.86855   0.87982   0.87982
 Alpha virt. eigenvalues --    0.88634   0.88634   0.88683   0.88821   0.90032
 Alpha virt. eigenvalues --    0.90032   0.93238   0.95417   0.96508   0.97550
 Alpha virt. eigenvalues --    0.97550   0.97780   0.98088   0.98088   0.98494
 Alpha virt. eigenvalues --    1.02158   1.03689   1.03689   1.05378   1.07232
 Alpha virt. eigenvalues --    1.07232   1.08700   1.08757   1.09088   1.09088
 Alpha virt. eigenvalues --    1.09658   1.09756   1.12677   1.13316   1.13316
 Alpha virt. eigenvalues --    1.14844   1.15753   1.15753   1.15918   1.17752
 Alpha virt. eigenvalues --    1.18626   1.19060   1.19985   1.19985   1.20686
 Alpha virt. eigenvalues --    1.21089   1.21089   1.23391   1.25451   1.25451
 Alpha virt. eigenvalues --    1.25869   1.27290   1.28186   1.29951   1.33513
 Alpha virt. eigenvalues --    1.33513   1.34316   1.34468   1.35027   1.35158
 Alpha virt. eigenvalues --    1.35158   1.37395   1.40212   1.40212   1.41991
 Alpha virt. eigenvalues --    1.41991   1.42447   1.42459   1.42524   1.43512
 Alpha virt. eigenvalues --    1.43770   1.44132   1.44132   1.44321   1.47260
 Alpha virt. eigenvalues --    1.47715   1.48120   1.48648   1.48648   1.50377
 Alpha virt. eigenvalues --    1.50377   1.51199   1.52664   1.53085   1.53805
 Alpha virt. eigenvalues --    1.53824   1.53824   1.54848   1.54848   1.55496
 Alpha virt. eigenvalues --    1.55496   1.60049   1.60087   1.60585   1.60585
 Alpha virt. eigenvalues --    1.61051   1.63801   1.65227   1.69418   1.71551
 Alpha virt. eigenvalues --    1.71551   1.72926   1.72926   1.73225   1.73613
 Alpha virt. eigenvalues --    1.73933   1.73933   1.73984   1.76768   1.76768
 Alpha virt. eigenvalues --    1.76846   1.77606   1.78157   1.80844   1.80844
 Alpha virt. eigenvalues --    1.80932   1.81213   1.82597   1.82675   1.82675
 Alpha virt. eigenvalues --    1.83441   1.83984   1.85813   1.85813   1.86928
 Alpha virt. eigenvalues --    1.89180   1.89180   1.89642   1.89820   1.92269
 Alpha virt. eigenvalues --    1.93606   1.93800   1.95580   1.95580   1.97264
 Alpha virt. eigenvalues --    1.98622   1.98622   1.98652   1.98851   2.00082
 Alpha virt. eigenvalues --    2.00817   2.00817   2.02545   2.02545   2.03382
 Alpha virt. eigenvalues --    2.03487   2.04437   2.04437   2.04965   2.07444
 Alpha virt. eigenvalues --    2.09365   2.09365   2.09562   2.11089   2.12606
 Alpha virt. eigenvalues --    2.12606   2.14446   2.14854   2.15967   2.15967
 Alpha virt. eigenvalues --    2.18434   2.18988   2.21291   2.21291   2.22379
 Alpha virt. eigenvalues --    2.22379   2.23198   2.24650   2.25391   2.26587
 Alpha virt. eigenvalues --    2.28646   2.31626   2.31626   2.33006   2.33883
 Alpha virt. eigenvalues --    2.34223   2.34223   2.35262   2.35780   2.35780
 Alpha virt. eigenvalues --    2.37300   2.38083   2.38083   2.38980   2.42854
 Alpha virt. eigenvalues --    2.44780   2.44780   2.46557   2.48338   2.49354
 Alpha virt. eigenvalues --    2.49575   2.49822   2.49822   2.51329   2.51687
 Alpha virt. eigenvalues --    2.53762   2.53762   2.54753   2.57552   2.57552
 Alpha virt. eigenvalues --    2.59545   2.59545   2.60840   2.60979   2.62316
 Alpha virt. eigenvalues --    2.66247   2.66364   2.66364   2.66463   2.66828
 Alpha virt. eigenvalues --    2.69389   2.70885   2.70885   2.72325   2.72340
 Alpha virt. eigenvalues --    2.72340   2.74575   2.78295   2.78619   2.78619
 Alpha virt. eigenvalues --    2.80983   2.81883   2.84111   2.86831   2.86831
 Alpha virt. eigenvalues --    2.90536   2.90536   2.93428   2.94030   2.95021
 Alpha virt. eigenvalues --    2.95021   2.97871   2.99793   3.03022   3.03939
 Alpha virt. eigenvalues --    3.03939   3.04980   3.09767   3.09767   3.09949
 Alpha virt. eigenvalues --    3.10417   3.10813   3.12901   3.14804   3.14804
 Alpha virt. eigenvalues --    3.15612   3.17246   3.18045   3.18280   3.18280
 Alpha virt. eigenvalues --    3.20321   3.20321   3.20571   3.22185   3.22303
 Alpha virt. eigenvalues --    3.22303   3.23559   3.26496   3.26496   3.28820
 Alpha virt. eigenvalues --    3.28859   3.29409   3.29950   3.30246   3.30246
 Alpha virt. eigenvalues --    3.30906   3.31159   3.32644   3.32644   3.33900
 Alpha virt. eigenvalues --    3.33900   3.36898   3.37659   3.39795   3.44383
 Alpha virt. eigenvalues --    3.44383   3.45174   3.46350   3.46350   3.47371
 Alpha virt. eigenvalues --    3.49033   3.49404   3.49404   3.52592   3.53125
 Alpha virt. eigenvalues --    3.59612   3.59612   3.64749   3.65974   3.73451
 Alpha virt. eigenvalues --    3.78209   3.78209   3.81926   3.85221   3.90143
 Alpha virt. eigenvalues --    3.92795   3.92795   3.98188   4.05931   4.05931
 Alpha virt. eigenvalues --    4.16947   4.22399   4.35489   4.35489   4.59279
 Alpha virt. eigenvalues --    4.61924   4.61924   4.63658   4.64012   4.72298
 Alpha virt. eigenvalues --    4.73774   4.73774   4.78096  23.11607  23.30874
 Alpha virt. eigenvalues --   23.30874  23.51363  23.51394  23.65134  23.65134
 Alpha virt. eigenvalues --   23.69756  23.73492  23.80730  23.80730  23.81889
 Alpha virt. eigenvalues --   23.91718  23.91718  23.91802  23.96629  23.97158
 Alpha virt. eigenvalues --   23.97224  23.97465  23.97465  23.97526  23.99654
 Alpha virt. eigenvalues --   23.99654  24.03724  24.13506  24.13506  24.13769
 Alpha virt. eigenvalues --   24.14012  24.14710  24.15977  24.15977  24.16988
          Condensed to atoms (all electrons):
               1          2          3          4          5          6
     1  C    4.842555   0.470276  -0.047450  -0.038217   0.000008  -0.000010
     2  C    0.470276   5.024689   0.547640  -0.047450   0.000038   0.000000
     3  C   -0.047450   0.547640   5.024689   0.470276   0.000658  -0.000022
     4  C   -0.038217  -0.047450   0.470276   4.842555  -0.043032   0.000658
     5  C    0.000008   0.000038   0.000658  -0.043032   4.842555   0.470276
     6  C   -0.000010   0.000000  -0.000022   0.000658   0.470276   5.024689
     7  C    0.000001   0.000000   0.000000   0.000038  -0.047450   0.547640
     8  C   -0.000002   0.000001  -0.000010   0.000008  -0.038217  -0.047450
     9  C    0.000001   0.000000  -0.000000   0.000021   0.000008   0.000038
    10  C    0.000000  -0.000000  -0.000000  -0.000000  -0.000010   0.000000
    11  C   -0.000000  -0.000000  -0.000000   0.000000   0.000001   0.000000
    12  C    0.000021  -0.000000   0.000000   0.000001  -0.000002   0.000001
    13  C    0.000008  -0.000010   0.000001  -0.000002   0.000001   0.000000
    14  C    0.000038   0.000000   0.000000   0.000001   0.000000  -0.000000
    15  C    0.000658  -0.000022   0.000000  -0.000010  -0.000000  -0.000000
    16  C   -0.043032   0.000658   0.000038   0.000008   0.000021  -0.000000
    17  C   -0.039604   0.005267  -0.000263   0.000305  -0.000004   0.000000
    18  C    0.440789  -0.067666   0.006474   0.000675   0.000008  -0.000000
    19  C    0.000675   0.006474  -0.067666   0.440789  -0.039604   0.005267
    20  C    0.000305  -0.000263   0.005267  -0.039604   0.440789  -0.067666
    21  C    0.000000  -0.000000  -0.000000   0.000008   0.000675   0.006474
    22  C   -0.000000   0.000000   0.000000  -0.000004   0.000305  -0.000263
    23  C   -0.000004   0.000000   0.000000  -0.000000   0.000000  -0.000000
    24  C    0.000008  -0.000000  -0.000000   0.000000  -0.000000   0.000000
    25  H   -0.048804   0.394303  -0.038711   0.005500   0.000000   0.000000
    26  H    0.005500  -0.038711   0.394303  -0.048804   0.000017   0.000000
    27  H   -0.000000   0.000000   0.000000   0.000017  -0.048804   0.394303
    28  H   -0.000000  -0.000000   0.000000   0.000000   0.005500  -0.038711
    29  H    0.000000  -0.000000  -0.000000   0.000000  -0.000000   0.000000
    30  H    0.000000  -0.000000  -0.000000   0.000000  -0.000000  -0.000000
    31  H    0.000000   0.000000  -0.000000  -0.000000   0.000000  -0.000000
    32  H    0.000017   0.000000   0.000000  -0.000000   0.000000  -0.000000
    33  H    0.006264  -0.000504   0.000012  -0.000003   0.000000  -0.000000
    34  H   -0.051122  -0.004386   0.000533   0.000042  -0.000000   0.000000
    35  H    0.000042   0.000533  -0.004386  -0.051122   0.006264  -0.000504
    36  H   -0.000003   0.000012  -0.000504   0.006264  -0.051122  -0.004386
    37  H    0.000000  -0.000000   0.000000  -0.000000   0.000042   0.000533
    38  H   -0.000000   0.000000  -0.000000   0.000000  -0.000003   0.000012
    39  H    0.000000  -0.000000   0.000000  -0.000000   0.000000  -0.000000
    40  H   -0.000000   0.000000  -0.000000   0.000000  -0.000000   0.000000
    41  C   -0.000273  -0.000002  -0.000007  -0.000053  -0.000310   0.000060
    42  C   -0.000053  -0.000007  -0.000002  -0.000273   0.007797  -0.001008
    43  C    0.007013  -0.000293   0.000060  -0.000310  -0.000053  -0.000007
    44  C   -0.048714   0.011416  -0.001008   0.007797  -0.000273  -0.000002
    45  C    0.528449  -0.036271  -0.041725  -0.058430   0.007013  -0.000293
    46  C   -0.058430  -0.041725  -0.036271   0.528449  -0.048714   0.011416
    47  C   -0.000310   0.000060  -0.000293   0.007013  -0.058430  -0.041725
    48  C    0.007797  -0.001008   0.011416  -0.048714   0.528449  -0.036271
               7          8          9         10         11         12
     1  C    0.000001  -0.000002   0.000001   0.000000  -0.000000   0.000021
     2  C    0.000000   0.000001   0.000000  -0.000000  -0.000000  -0.000000
     3  C    0.000000  -0.000010  -0.000000  -0.000000  -0.000000   0.000000
     4  C    0.000038   0.000008   0.000021  -0.000000   0.000000   0.000001
     5  C   -0.047450  -0.038217   0.000008  -0.000010   0.000001  -0.000002
     6  C    0.547640  -0.047450   0.000038   0.000000   0.000000   0.000001
     7  C    5.024689   0.470276   0.000658  -0.000022   0.000000  -0.000010
     8  C    0.470276   4.842555  -0.043032   0.000658   0.000038   0.000008
     9  C    0.000658  -0.043032   4.842555   0.470276  -0.047450  -0.038217
    10  C   -0.000022   0.000658   0.470276   5.024689   0.547640  -0.047450
    11  C    0.000000   0.000038  -0.047450   0.547640   5.024689   0.470276
    12  C   -0.000010   0.000008  -0.038217  -0.047450   0.470276   4.842555
    13  C   -0.000000   0.000021   0.000008   0.000038   0.000658  -0.043032
    14  C   -0.000000  -0.000000  -0.000010   0.000000  -0.000022   0.000658
    15  C   -0.000000   0.000000   0.000001   0.000000   0.000000   0.000038
    16  C    0.000000   0.000001  -0.000002   0.000001  -0.000010   0.000008
    17  C    0.000000  -0.000000   0.000000  -0.000000  -0.000000   0.000008
    18  C   -0.000000   0.000000  -0.000000   0.000000   0.000000  -0.000004
    19  C   -0.000263   0.000305  -0.000004   0.000000   0.000000  -0.000000
    20  C    0.006474   0.000675   0.000008  -0.000000  -0.000000   0.000000
    21  C   -0.067666   0.440789  -0.039604   0.005267  -0.000263   0.000305
    22  C    0.005267  -0.039604   0.440789  -0.067666   0.006474   0.000675
    23  C   -0.000000   0.000008   0.000675   0.006474  -0.067666   0.440789
    24  C    0.000000  -0.000004   0.000305  -0.000263   0.005267  -0.039604
    25  H   -0.000000  -0.000000   0.000000  -0.000000  -0.000000   0.000000
    26  H    0.000000  -0.000000   0.000000  -0.000000  -0.000000   0.000000
    27  H   -0.038711   0.005500   0.000000   0.000000  -0.000000  -0.000000
    28  H    0.394303  -0.048804   0.000017   0.000000   0.000000  -0.000000
    29  H    0.000000   0.000017  -0.048804   0.394303  -0.038711   0.005500
    30  H    0.000000   0.000000   0.005500  -0.038711   0.394303  -0.048804
    31  H   -0.000000   0.000000  -0.000000   0.000000   0.000000   0.000017
    32  H   -0.000000   0.000000  -0.000000  -0.000000   0.000000   0.000000
    33  H    0.000000  -0.000000   0.000000  -0.000000   0.000000  -0.000000
    34  H   -0.000000   0.000000  -0.000000   0.000000  -0.000000   0.000000
    35  H    0.000012  -0.000003   0.000000  -0.000000   0.000000  -0.000000
    36  H    0.000533   0.000042  -0.000000   0.000000  -0.000000   0.000000
    37  H   -0.004386  -0.051122   0.006264  -0.000504   0.000012  -0.000003
    38  H   -0.000504   0.006264  -0.051122  -0.004386   0.000533   0.000042
    39  H    0.000000  -0.000000   0.000042   0.000533  -0.004386  -0.051122
    40  H   -0.000000   0.000000  -0.000003   0.000012  -0.000504   0.006264
    41  C   -0.000293   0.007013  -0.058430  -0.041725  -0.036271   0.528449
    42  C    0.011416  -0.048714   0.528449  -0.036271  -0.041725  -0.058430
    43  C   -0.000002  -0.000273   0.007797  -0.001008   0.011416  -0.048714
    44  C   -0.000007  -0.000053  -0.000310   0.000060  -0.000293   0.007013
    45  C    0.000060  -0.000310  -0.000053  -0.000007  -0.000002  -0.000273
    46  C   -0.001008   0.007797  -0.000273  -0.000002  -0.000007  -0.000053
    47  C   -0.036271   0.528449  -0.048714   0.011416  -0.001008   0.007797
    48  C   -0.041725  -0.058430   0.007013  -0.000293   0.000060  -0.000310
              13         14         15         16         17         18
     1  C    0.000008   0.000038   0.000658  -0.043032  -0.039604   0.440789
     2  C   -0.000010   0.000000  -0.000022   0.000658   0.005267  -0.067666
     3  C    0.000001   0.000000   0.000000   0.000038  -0.000263   0.006474
     4  C   -0.000002   0.000001  -0.000010   0.000008   0.000305   0.000675
     5  C    0.000001   0.000000  -0.000000   0.000021  -0.000004   0.000008
     6  C    0.000000  -0.000000  -0.000000  -0.000000   0.000000  -0.000000
     7  C   -0.000000  -0.000000  -0.000000   0.000000   0.000000  -0.000000
     8  C    0.000021  -0.000000   0.000000   0.000001  -0.000000   0.000000
     9  C    0.000008  -0.000010   0.000001  -0.000002   0.000000  -0.000000
    10  C    0.000038   0.000000   0.000000   0.000001  -0.000000   0.000000
    11  C    0.000658  -0.000022   0.000000  -0.000010  -0.000000   0.000000
    12  C   -0.043032   0.000658   0.000038   0.000008   0.000008  -0.000004
    13  C    4.842555   0.470276  -0.047450  -0.038217   0.000675   0.000305
    14  C    0.470276   5.024689   0.547640  -0.047450   0.006474  -0.000263
    15  C   -0.047450   0.547640   5.024689   0.470276  -0.067666   0.005267
    16  C   -0.038217  -0.047450   0.470276   4.842555   0.440789  -0.039604
    17  C    0.000675   0.006474  -0.067666   0.440789   5.030138   0.577367
    18  C    0.000305  -0.000263   0.005267  -0.039604   0.577367   5.030138
    19  C    0.000000  -0.000000  -0.000000   0.000008  -0.000000  -0.000064
    20  C   -0.000000   0.000000   0.000000  -0.000004  -0.000005  -0.000000
    21  C   -0.000004   0.000000   0.000000  -0.000000   0.000000  -0.000000
    22  C    0.000008  -0.000000  -0.000000   0.000000  -0.000000   0.000000
    23  C   -0.039604   0.005267  -0.000263   0.000305  -0.000000  -0.000005
    24  C    0.440789  -0.067666   0.006474   0.000675  -0.000064  -0.000000
    25  H   -0.000000   0.000000   0.000000   0.000017   0.000693  -0.004905
    26  H   -0.000000  -0.000000   0.000000   0.000000   0.000014  -0.000514
    27  H    0.000000  -0.000000  -0.000000   0.000000   0.000000   0.000000
    28  H    0.000000  -0.000000  -0.000000   0.000000   0.000000  -0.000000
    29  H    0.000000   0.000000  -0.000000  -0.000000  -0.000000   0.000000
    30  H    0.000017   0.000000   0.000000  -0.000000   0.000000   0.000000
    31  H   -0.048804   0.394303  -0.038711   0.005500  -0.000514   0.000014
    32  H    0.005500  -0.038711   0.394303  -0.048804  -0.004905   0.000693
    33  H    0.000042   0.000533  -0.004386  -0.051122   0.395462  -0.040860
    34  H   -0.000003   0.000012  -0.000504   0.006264  -0.040860   0.395462
    35  H    0.000000  -0.000000   0.000000  -0.000000   0.000000  -0.000007
    36  H   -0.000000   0.000000  -0.000000   0.000000   0.000000   0.000000
    37  H    0.000000  -0.000000   0.000000  -0.000000   0.000000  -0.000000
    38  H   -0.000000   0.000000  -0.000000   0.000000  -0.000000   0.000000
    39  H    0.006264  -0.000504   0.000012  -0.000003   0.000000   0.000000
    40  H   -0.051122  -0.004386   0.000533   0.000042  -0.000007   0.000000
    41  C   -0.048714   0.011416  -0.001008   0.007797  -0.000042  -0.000058
    42  C    0.007013  -0.000293   0.000060  -0.000310   0.000011  -0.000004
    43  C    0.528449  -0.036271  -0.041725  -0.058430   0.011445  -0.000011
    44  C   -0.058430  -0.041725  -0.036271   0.528449  -0.061073  -0.034664
    45  C    0.007797  -0.001008   0.011416  -0.048714  -0.034664  -0.061073
    46  C   -0.000310   0.000060  -0.000293   0.007013  -0.000011   0.011445
    47  C   -0.000273  -0.000002  -0.000007  -0.000053  -0.000004   0.000011
    48  C   -0.000053  -0.000007  -0.000002  -0.000273  -0.000058  -0.000042
              19         20         21         22         23         24
     1  C    0.000675   0.000305   0.000000  -0.000000  -0.000004   0.000008
     2  C    0.006474  -0.000263  -0.000000   0.000000   0.000000  -0.000000
     3  C   -0.067666   0.005267  -0.000000   0.000000   0.000000  -0.000000
     4  C    0.440789  -0.039604   0.000008  -0.000004  -0.000000   0.000000
     5  C   -0.039604   0.440789   0.000675   0.000305   0.000000  -0.000000
     6  C    0.005267  -0.067666   0.006474  -0.000263  -0.000000   0.000000
     7  C   -0.000263   0.006474  -0.067666   0.005267  -0.000000   0.000000
     8  C    0.000305   0.000675   0.440789  -0.039604   0.000008  -0.000004
     9  C   -0.000004   0.000008  -0.039604   0.440789   0.000675   0.000305
    10  C    0.000000  -0.000000   0.005267  -0.067666   0.006474  -0.000263
    11  C    0.000000  -0.000000  -0.000263   0.006474  -0.067666   0.005267
    12  C   -0.000000   0.000000   0.000305   0.000675   0.440789  -0.039604
    13  C    0.000000  -0.000000  -0.000004   0.000008  -0.039604   0.440789
    14  C   -0.000000   0.000000   0.000000  -0.000000   0.005267  -0.067666
    15  C   -0.000000   0.000000   0.000000  -0.000000  -0.000263   0.006474
    16  C    0.000008  -0.000004  -0.000000   0.000000   0.000305   0.000675
    17  C   -0.000000  -0.000005   0.000000  -0.000000  -0.000000  -0.000064
    18  C   -0.000064  -0.000000  -0.000000   0.000000  -0.000005  -0.000000
    19  C    5.030138   0.577367  -0.000000  -0.000005   0.000000  -0.000000
    20  C    0.577367   5.030138  -0.000064  -0.000000  -0.000000   0.000000
    21  C   -0.000000  -0.000064   5.030138   0.577367  -0.000000  -0.000005
    22  C   -0.000005  -0.000000   0.577367   5.030138  -0.000064  -0.000000
    23  C    0.000000  -0.000000  -0.000000  -0.000064   5.030138   0.577367
    24  C   -0.000000   0.000000  -0.000005  -0.000000   0.577367   5.030138
    25  H   -0.000514   0.000014  -0.000000   0.000000   0.000000   0.000000
    26  H   -0.004905   0.000693   0.000000   0.000000   0.000000  -0.000000
    27  H    0.000693  -0.004905  -0.000514   0.000014  -0.000000   0.000000
    28  H    0.000014  -0.000514  -0.004905   0.000693   0.000000   0.000000
    29  H    0.000000   0.000000   0.000693  -0.004905  -0.000514   0.000014
    30  H    0.000000  -0.000000   0.000014  -0.000514  -0.004905   0.000693
    31  H   -0.000000   0.000000   0.000000   0.000000   0.000693  -0.004905
    32  H    0.000000   0.000000   0.000000  -0.000000   0.000014  -0.000514
    33  H    0.000000   0.000000   0.000000  -0.000000   0.000000  -0.000007
    34  H   -0.000007   0.000000  -0.000000   0.000000   0.000000   0.000000
    35  H    0.395462  -0.040860   0.000000   0.000000   0.000000  -0.000000
    36  H   -0.040860   0.395462  -0.000007   0.000000  -0.000000   0.000000
    37  H    0.000000  -0.000007   0.395462  -0.040860   0.000000   0.000000
    38  H    0.000000   0.000000  -0.040860   0.395462  -0.000007   0.000000
    39  H    0.000000  -0.000000   0.000000  -0.000007   0.395462  -0.040860
    40  H   -0.000000   0.000000   0.000000   0.000000  -0.040860   0.395462
    41  C   -0.000004   0.000011  -0.000011   0.011445  -0.061073  -0.034664
    42  C   -0.000058  -0.000042  -0.034664  -0.061073   0.011445  -0.000011
    43  C    0.000011  -0.000004  -0.000058  -0.000042  -0.034664  -0.061073
    44  C   -0.000042  -0.000058  -0.000004   0.000011  -0.000011   0.011445
    45  C    0.011445  -0.000011   0.000011  -0.000004  -0.000058  -0.000042
    46  C   -0.061073  -0.034664  -0.000042  -0.000058  -0.000004   0.000011
    47  C   -0.000011   0.011445  -0.061073  -0.034664  -0.000042  -0.000058
    48  C   -0.034664  -0.061073   0.011445  -0.000011   0.000011  -0.000004
              25         26         27         28         29         30
     1  C   -0.048804   0.005500  -0.000000  -0.000000   0.000000   0.000000
     2  C    0.394303  -0.038711   0.000000  -0.000000  -0.000000  -0.000000
     3  C   -0.038711   0.394303   0.000000   0.000000  -0.000000  -0.000000
     4  C    0.005500  -0.048804   0.000017   0.000000   0.000000   0.000000
     5  C    0.000000   0.000017  -0.048804   0.005500  -0.000000  -0.000000
     6  C    0.000000   0.000000   0.394303  -0.038711   0.000000  -0.000000
     7  C   -0.000000   0.000000  -0.038711   0.394303   0.000000   0.000000
     8  C   -0.000000  -0.000000   0.005500  -0.048804   0.000017   0.000000
     9  C    0.000000   0.000000   0.000000   0.000017  -0.048804   0.005500
    10  C   -0.000000  -0.000000   0.000000   0.000000   0.394303  -0.038711
    11  C   -0.000000  -0.000000  -0.000000   0.000000  -0.038711   0.394303
    12  C    0.000000   0.000000  -0.000000  -0.000000   0.005500  -0.048804
    13  C   -0.000000  -0.000000   0.000000   0.000000   0.000000   0.000017
    14  C    0.000000  -0.000000  -0.000000  -0.000000   0.000000   0.000000
    15  C    0.000000   0.000000  -0.000000  -0.000000  -0.000000   0.000000
    16  C    0.000017   0.000000   0.000000   0.000000  -0.000000  -0.000000
    17  C    0.000693   0.000014   0.000000   0.000000  -0.000000   0.000000
    18  C   -0.004905  -0.000514   0.000000  -0.000000   0.000000   0.000000
    19  C   -0.000514  -0.004905   0.000693   0.000014   0.000000   0.000000
    20  C    0.000014   0.000693  -0.004905  -0.000514   0.000000  -0.000000
    21  C   -0.000000   0.000000  -0.000514  -0.004905   0.000693   0.000014
    22  C    0.000000   0.000000   0.000014   0.000693  -0.004905  -0.000514
    23  C    0.000000   0.000000  -0.000000   0.000000  -0.000514  -0.004905
    24  C    0.000000  -0.000000   0.000000   0.000000   0.000014   0.000693
    25  H    0.495521  -0.007025  -0.000000   0.000000  -0.000000   0.000000
    26  H   -0.007025   0.495521   0.000000  -0.000000   0.000000  -0.000000
    27  H   -0.000000   0.000000   0.495521  -0.007025  -0.000000   0.000000
    28  H    0.000000  -0.000000  -0.007025   0.495521   0.000000  -0.000000
    29  H   -0.000000   0.000000  -0.000000   0.000000   0.495521  -0.007025
    30  H    0.000000  -0.000000   0.000000  -0.000000  -0.007025   0.495521
    31  H   -0.000000   0.000000  -0.000000   0.000000  -0.000000   0.000000
    32  H    0.000000  -0.000000   0.000000  -0.000000   0.000000  -0.000000
    33  H   -0.000037  -0.000001   0.000000  -0.000000   0.000000  -0.000000
    34  H    0.004103  -0.000048  -0.000000   0.000000  -0.000000   0.000000
    35  H   -0.000048   0.004103  -0.000037  -0.000001   0.000000  -0.000000
    36  H   -0.000001  -0.000037   0.004103  -0.000048  -0.000000   0.000000
    37  H    0.000000  -0.000000  -0.000048   0.004103  -0.000037  -0.000001
    38  H   -0.000000   0.000000  -0.000001  -0.000037   0.004103  -0.000048
    39  H    0.000000  -0.000000   0.000000  -0.000000  -0.000048   0.004103
    40  H   -0.000000   0.000000  -0.000000   0.000000  -0.000001  -0.000037
    41  C   -0.000000   0.000000  -0.000002   0.000011   0.000680   0.004711
    42  C    0.000000  -0.000000   0.000072  -0.000488   0.004711   0.000680
    43  C    0.000011  -0.000002   0.000000  -0.000000   0.000072  -0.000488
    44  C   -0.000488   0.000072  -0.000000   0.000000  -0.000002   0.000011
    45  C    0.004711   0.000680   0.000011  -0.000002   0.000000  -0.000000
    46  C    0.000680   0.004711  -0.000488   0.000072  -0.000000   0.000000
    47  C   -0.000002   0.000011   0.000680   0.004711  -0.000488   0.000072
    48  C    0.000072  -0.000488   0.004711   0.000680   0.000011  -0.000002
              31         32         33         34         35         36
     1  C    0.000000   0.000017   0.006264  -0.051122   0.000042  -0.000003
     2  C    0.000000   0.000000  -0.000504  -0.004386   0.000533   0.000012
     3  C   -0.000000   0.000000   0.000012   0.000533  -0.004386  -0.000504
     4  C   -0.000000  -0.000000  -0.000003   0.000042  -0.051122   0.006264
     5  C    0.000000   0.000000   0.000000  -0.000000   0.006264  -0.051122
     6  C   -0.000000  -0.000000  -0.000000   0.000000  -0.000504  -0.004386
     7  C   -0.000000  -0.000000   0.000000  -0.000000   0.000012   0.000533
     8  C    0.000000   0.000000  -0.000000   0.000000  -0.000003   0.000042
     9  C   -0.000000  -0.000000   0.000000  -0.000000   0.000000  -0.000000
    10  C    0.000000  -0.000000  -0.000000   0.000000  -0.000000   0.000000
    11  C    0.000000   0.000000   0.000000  -0.000000   0.000000  -0.000000
    12  C    0.000017   0.000000  -0.000000   0.000000  -0.000000   0.000000
    13  C   -0.048804   0.005500   0.000042  -0.000003   0.000000  -0.000000
    14  C    0.394303  -0.038711   0.000533   0.000012  -0.000000   0.000000
    15  C   -0.038711   0.394303  -0.004386  -0.000504   0.000000  -0.000000
    16  C    0.005500  -0.048804  -0.051122   0.006264  -0.000000   0.000000
    17  C   -0.000514  -0.004905   0.395462  -0.040860   0.000000   0.000000
    18  C    0.000014   0.000693  -0.040860   0.395462  -0.000007   0.000000
    19  C   -0.000000   0.000000   0.000000  -0.000007   0.395462  -0.040860
    20  C    0.000000   0.000000   0.000000   0.000000  -0.040860   0.395462
    21  C    0.000000   0.000000   0.000000  -0.000000   0.000000  -0.000007
    22  C    0.000000  -0.000000  -0.000000   0.000000   0.000000   0.000000
    23  C    0.000693   0.000014   0.000000   0.000000   0.000000  -0.000000
    24  C   -0.004905  -0.000514  -0.000007   0.000000  -0.000000   0.000000
    25  H   -0.000000   0.000000  -0.000037   0.004103  -0.000048  -0.000001
    26  H    0.000000  -0.000000  -0.000001  -0.000048   0.004103  -0.000037
    27  H   -0.000000   0.000000   0.000000  -0.000000  -0.000037   0.004103
    28  H    0.000000  -0.000000  -0.000000   0.000000  -0.000001  -0.000048
    29  H   -0.000000   0.000000   0.000000  -0.000000   0.000000  -0.000000
    30  H    0.000000  -0.000000  -0.000000   0.000000  -0.000000   0.000000
    31  H    0.495521  -0.007025  -0.000048  -0.000001   0.000000  -0.000000
    32  H   -0.007025   0.495521   0.004103  -0.000037  -0.000000   0.000000
    33  H   -0.000048   0.004103   0.498829  -0.006903  -0.000000   0.000000
    34  H   -0.000001  -0.000037  -0.006903   0.498829  -0.000000  -0.000000
    35  H    0.000000  -0.000000  -0.000000  -0.000000   0.498829  -0.006903
    36  H   -0.000000   0.000000   0.000000  -0.000000  -0.006903   0.498829
    37  H    0.000000  -0.000000  -0.000000   0.000000  -0.000000  -0.000000
    38  H   -0.000000   0.000000   0.000000  -0.000000   0.000000  -0.000000
    39  H   -0.000037  -0.000001  -0.000000   0.000000  -0.000000   0.000000
    40  H    0.004103  -0.000048  -0.000000  -0.000000   0.000000  -0.000000
    41  C   -0.000488   0.000072   0.000012   0.000001  -0.000000   0.000000
    42  C    0.000011  -0.000002   0.000000  -0.000000   0.000001   0.000012
    43  C    0.004711   0.000680  -0.000401   0.000046   0.000000  -0.000000
    44  C    0.000680   0.004711   0.006108   0.000282   0.000012   0.000001
    45  C    0.000072  -0.000488   0.000282   0.006108  -0.000401   0.000046
    46  C   -0.000002   0.000011   0.000046  -0.000401   0.006108   0.000282
    47  C   -0.000000   0.000000  -0.000000   0.000000   0.000046  -0.000401
    48  C    0.000000  -0.000000   0.000001   0.000012   0.000282   0.006108
              37         38         39         40         41         42
     1  C    0.000000  -0.000000   0.000000  -0.000000  -0.000273  -0.000053
     2  C   -0.000000   0.000000  -0.000000   0.000000  -0.000002  -0.000007
     3  C    0.000000  -0.000000   0.000000  -0.000000  -0.000007  -0.000002
     4  C   -0.000000   0.000000  -0.000000   0.000000  -0.000053  -0.000273
     5  C    0.000042  -0.000003   0.000000  -0.000000  -0.000310   0.007797
     6  C    0.000533   0.000012  -0.000000   0.000000   0.000060  -0.001008
     7  C   -0.004386  -0.000504   0.000000  -0.000000  -0.000293   0.011416
     8  C   -0.051122   0.006264  -0.000000   0.000000   0.007013  -0.048714
     9  C    0.006264  -0.051122   0.000042  -0.000003  -0.058430   0.528449
    10  C   -0.000504  -0.004386   0.000533   0.000012  -0.041725  -0.036271
    11  C    0.000012   0.000533  -0.004386  -0.000504  -0.036271  -0.041725
    12  C   -0.000003   0.000042  -0.051122   0.006264   0.528449  -0.058430
    13  C    0.000000  -0.000000   0.006264  -0.051122  -0.048714   0.007013
    14  C   -0.000000   0.000000  -0.000504  -0.004386   0.011416  -0.000293
    15  C    0.000000  -0.000000   0.000012   0.000533  -0.001008   0.000060
    16  C   -0.000000   0.000000  -0.000003   0.000042   0.007797  -0.000310
    17  C    0.000000  -0.000000   0.000000  -0.000007  -0.000042   0.000011
    18  C   -0.000000   0.000000   0.000000   0.000000  -0.000058  -0.000004
    19  C    0.000000   0.000000   0.000000  -0.000000  -0.000004  -0.000058
    20  C   -0.000007   0.000000  -0.000000   0.000000   0.000011  -0.000042
    21  C    0.395462  -0.040860   0.000000   0.000000  -0.000011  -0.034664
    22  C   -0.040860   0.395462  -0.000007   0.000000   0.011445  -0.061073
    23  C    0.000000  -0.000007   0.395462  -0.040860  -0.061073   0.011445
    24  C    0.000000   0.000000  -0.040860   0.395462  -0.034664  -0.000011
    25  H    0.000000  -0.000000   0.000000  -0.000000  -0.000000   0.000000
    26  H   -0.000000   0.000000  -0.000000   0.000000   0.000000  -0.000000
    27  H   -0.000048  -0.000001   0.000000  -0.000000  -0.000002   0.000072
    28  H    0.004103  -0.000037  -0.000000   0.000000   0.000011  -0.000488
    29  H   -0.000037   0.004103  -0.000048  -0.000001   0.000680   0.004711
    30  H   -0.000001  -0.000048   0.004103  -0.000037   0.004711   0.000680
    31  H    0.000000  -0.000000  -0.000037   0.004103  -0.000488   0.000011
    32  H   -0.000000   0.000000  -0.000001  -0.000048   0.000072  -0.000002
    33  H   -0.000000   0.000000  -0.000000  -0.000000   0.000012   0.000000
    34  H    0.000000  -0.000000   0.000000  -0.000000   0.000001  -0.000000
    35  H   -0.000000   0.000000  -0.000000   0.000000  -0.000000   0.000001
    36  H   -0.000000  -0.000000   0.000000  -0.000000   0.000000   0.000012
    37  H    0.498829  -0.006903  -0.000000   0.000000   0.000046   0.000282
    38  H   -0.006903   0.498829  -0.000000  -0.000000  -0.000401   0.006108
    39  H   -0.000000  -0.000000   0.498829  -0.006903   0.006108  -0.000401
    40  H    0.000000  -0.000000  -0.006903   0.498829   0.000282   0.000046
    41  C    0.000046  -0.000401   0.006108   0.000282   4.984031   0.460052
    42  C    0.000282   0.006108  -0.000401   0.000046   0.460052   4.984031
    43  C    0.000001   0.000012   0.000282   0.006108   0.427839  -0.066917
    44  C   -0.000000   0.000000   0.000046  -0.000401  -0.066917  -0.007472
    45  C    0.000000  -0.000000   0.000001   0.000012  -0.017452   0.003689
    46  C    0.000012   0.000001  -0.000000   0.000000   0.003689  -0.017452
    47  C    0.006108   0.000282   0.000012   0.000001  -0.066917   0.427839
    48  C   -0.000401   0.000046   0.000000  -0.000000  -0.007472  -0.066917
              43         44         45         46         47         48
     1  C    0.007013  -0.048714   0.528449  -0.058430  -0.000310   0.007797
     2  C   -0.000293   0.011416  -0.036271  -0.041725   0.000060  -0.001008
     3  C    0.000060  -0.001008  -0.041725  -0.036271  -0.000293   0.011416
     4  C   -0.000310   0.007797  -0.058430   0.528449   0.007013  -0.048714
     5  C   -0.000053  -0.000273   0.007013  -0.048714  -0.058430   0.528449
     6  C   -0.000007  -0.000002  -0.000293   0.011416  -0.041725  -0.036271
     7  C   -0.000002  -0.000007   0.000060  -0.001008  -0.036271  -0.041725
     8  C   -0.000273  -0.000053  -0.000310   0.007797   0.528449  -0.058430
     9  C    0.007797  -0.000310  -0.000053  -0.000273  -0.048714   0.007013
    10  C   -0.001008   0.000060  -0.000007  -0.000002   0.011416  -0.000293
    11  C    0.011416  -0.000293  -0.000002  -0.000007  -0.001008   0.000060
    12  C   -0.048714   0.007013  -0.000273  -0.000053   0.007797  -0.000310
    13  C    0.528449  -0.058430   0.007797  -0.000310  -0.000273  -0.000053
    14  C   -0.036271  -0.041725  -0.001008   0.000060  -0.000002  -0.000007
    15  C   -0.041725  -0.036271   0.011416  -0.000293  -0.000007  -0.000002
    16  C   -0.058430   0.528449  -0.048714   0.007013  -0.000053  -0.000273
    17  C    0.011445  -0.061073  -0.034664  -0.000011  -0.000004  -0.000058
    18  C   -0.000011  -0.034664  -0.061073   0.011445   0.000011  -0.000042
    19  C    0.000011  -0.000042   0.011445  -0.061073  -0.000011  -0.034664
    20  C   -0.000004  -0.000058  -0.000011  -0.034664   0.011445  -0.061073
    21  C   -0.000058  -0.000004   0.000011  -0.000042  -0.061073   0.011445
    22  C   -0.000042   0.000011  -0.000004  -0.000058  -0.034664  -0.000011
    23  C   -0.034664  -0.000011  -0.000058  -0.000004  -0.000042   0.000011
    24  C   -0.061073   0.011445  -0.000042   0.000011  -0.000058  -0.000004
    25  H    0.000011  -0.000488   0.004711   0.000680  -0.000002   0.000072
    26  H   -0.000002   0.000072   0.000680   0.004711   0.000011  -0.000488
    27  H    0.000000  -0.000000   0.000011  -0.000488   0.000680   0.004711
    28  H   -0.000000   0.000000  -0.000002   0.000072   0.004711   0.000680
    29  H    0.000072  -0.000002   0.000000  -0.000000  -0.000488   0.000011
    30  H   -0.000488   0.000011  -0.000000   0.000000   0.000072  -0.000002
    31  H    0.004711   0.000680   0.000072  -0.000002  -0.000000   0.000000
    32  H    0.000680   0.004711  -0.000488   0.000011   0.000000  -0.000000
    33  H   -0.000401   0.006108   0.000282   0.000046  -0.000000   0.000001
    34  H    0.000046   0.000282   0.006108  -0.000401   0.000000   0.000012
    35  H    0.000000   0.000012  -0.000401   0.006108   0.000046   0.000282
    36  H   -0.000000   0.000001   0.000046   0.000282  -0.000401   0.006108
    37  H    0.000001  -0.000000   0.000000   0.000012   0.006108  -0.000401
    38  H    0.000012   0.000000  -0.000000   0.000001   0.000282   0.000046
    39  H    0.000282   0.000046   0.000001  -0.000000   0.000012   0.000000
    40  H    0.006108  -0.000401   0.000012   0.000000   0.000001  -0.000000
    41  C    0.427839  -0.066917  -0.017452   0.003689  -0.066917  -0.007472
    42  C   -0.066917  -0.007472   0.003689  -0.017452   0.427839  -0.066917
    43  C    4.984031   0.460052  -0.066917  -0.007472  -0.017452   0.003689
    44  C    0.460052   4.984031   0.427839  -0.066917   0.003689  -0.017452
    45  C   -0.066917   0.427839   4.984031   0.460052  -0.007472  -0.066917
    46  C   -0.007472  -0.066917   0.460052   4.984031  -0.066917   0.427839
    47  C   -0.017452   0.003689  -0.007472  -0.066917   4.984031   0.460052
    48  C    0.003689  -0.017452  -0.066917   0.427839   0.460052   4.984031
 Mulliken charges:
               1
     1  C    0.065605
     2  C   -0.223051
     3  C   -0.223051
     4  C    0.065605
     5  C    0.065605
     6  C   -0.223051
     7  C   -0.223051
     8  C    0.065605
     9  C    0.065605
    10  C   -0.223051
    11  C   -0.223051
    12  C    0.065605
    13  C    0.065605
    14  C   -0.223051
    15  C   -0.223051
    16  C    0.065605
    17  C   -0.218904
    18  C   -0.218904
    19  C   -0.218904
    20  C   -0.218904
    21  C   -0.218904
    22  C   -0.218904
    23  C   -0.218904
    24  C   -0.218904
    25  H    0.194909
    26  H    0.194909
    27  H    0.194909
    28  H    0.194909
    29  H    0.194909
    30  H    0.194909
    31  H    0.194909
    32  H    0.194909
    33  H    0.192579
    34  H    0.192579
    35  H    0.192579
    36  H    0.192579
    37  H    0.192579
    38  H    0.192579
    39  H    0.192579
    40  H    0.192579
    41  C   -0.011139
    42  C   -0.011139
    43  C   -0.011139
    44  C   -0.011139
    45  C   -0.011139
    46  C   -0.011139
    47  C   -0.011139
    48  C   -0.011139
 Sum of Mulliken charges =  -0.00000
 Mulliken charges with hydrogens summed into heavy atoms:
               1
     1  C    0.065605
     2  C   -0.028142
     3  C   -0.028142
     4  C    0.065605
     5  C    0.065605
     6  C   -0.028142
     7  C   -0.028142
     8  C    0.065605
     9  C    0.065605
    10  C   -0.028142
    11  C   -0.028142
    12  C    0.065605
    13  C    0.065605
    14  C   -0.028142
    15  C   -0.028142
    16  C    0.065605
    17  C   -0.026325
    18  C   -0.026325
    19  C   -0.026325
    20  C   -0.026325
    21  C   -0.026325
    22  C   -0.026325
    23  C   -0.026325
    24  C   -0.026325
    41  C   -0.011139
    42  C   -0.011139
    43  C   -0.011139
    44  C   -0.011139
    45  C   -0.011139
    46  C   -0.011139
    47  C   -0.011139
    48  C   -0.011139
 Electronic spatial extent (au):  <R**2>=          10066.5845
 Charge=              0.0000 electrons
 Dipole moment (field-independent basis, Debye):
    X=             -0.0000    Y=              0.0000    Z=             -0.0000  Tot=              0.0000
 Quadrupole moment (field-independent basis, Debye-Ang):
   XX=           -160.7578   YY=           -160.7578   ZZ=           -179.8121
   XY=             -0.0000   XZ=              0.0000   YZ=              0.0000
 Traceless Quadrupole moment (field-independent basis, Debye-Ang):
   XX=              6.3514   YY=              6.3514   ZZ=            -12.7029
   XY=             -0.0000   XZ=              0.0000   YZ=              0.0000
 Octapole moment (field-independent basis, Debye-Ang**2):
  XXX=             -0.0000  YYY=              0.0000  ZZZ=             -0.0000  XYY=             -0.0000
  XXY=              0.0000  XXZ=            -57.7576  XZZ=             -0.0000  YZZ=              0.0000
  YYZ=             57.7576  XYZ=              0.0000
 Hexadecapole moment (field-independent basis, Debye-Ang**3):
 XXXX=          -5972.8920 YYYY=          -5972.8920 ZZZZ=          -1819.2161 XXXY=             -0.0000
 XXXZ=              0.0000 YYYX=             -0.0000 YYYZ=              0.0000 ZZZX=              0.0000
 ZZZY=              0.0000 XXYY=          -1778.6633 XXZZ=          -1221.6965 YYZZ=          -1221.6965
 XXYZ=              0.0000 YYXZ=             -0.0000 ZZXY=              0.0000
 N-N= 2.922022382006D+03 E-N=-8.697178276290D+03  KE= 1.223904467953D+03
 There are a total of     1090944 grid points.
 ElSum from          density=      208.0000265353
 ElSum from atomic densities=      208.0003385284
 Hirshfeld populations at iteration   1 (CA, CB, DipXYZ):
               1          2          3          4          5
     1  C    3.001732   3.001732  -0.006781   0.005909   0.001782
     2  C    3.021224   3.021224  -0.056415  -0.023401   0.024978
     3  C    3.021224   3.021224   0.056415  -0.023401   0.024978
     4  C    3.001732   3.001732   0.006781   0.005909   0.001782
     5  C    3.001732   3.001732  -0.005909  -0.006781  -0.001782
     6  C    3.021224   3.021224   0.023401  -0.056415  -0.024978
     7  C    3.021224   3.021224   0.023401   0.056415  -0.024978
     8  C    3.001732   3.001732  -0.005909   0.006781  -0.001782
     9  C    3.001732   3.001732   0.006781  -0.005909   0.001782
    10  C    3.021224   3.021224   0.056415   0.023401   0.024978
    11  C    3.021224   3.021224  -0.056415   0.023401   0.024978
    12  C    3.001732   3.001732  -0.006781  -0.005909   0.001782
    13  C    3.001732   3.001732   0.005909   0.006781  -0.001782
    14  C    3.021224   3.021224  -0.023401   0.056415  -0.024978
    15  C    3.021224   3.021224  -0.023401  -0.056415  -0.024978
    16  C    3.001732   3.001732   0.005909  -0.006781  -0.001782
    17  C    3.022497   3.022497  -0.039255   0.000175  -0.058506
    18  C    3.022497   3.022497   0.000175  -0.039255   0.058506
    19  C    3.022497   3.022497  -0.000175  -0.039255   0.058506
    20  C    3.022497   3.022497   0.039255   0.000175  -0.058506
    21  C    3.022497   3.022497   0.039255  -0.000175  -0.058506
    22  C    3.022497   3.022497  -0.000175   0.039255   0.058506
    23  C    3.022497   3.022497   0.000175   0.039255   0.058506
    24  C    3.022497   3.022497  -0.039255  -0.000175  -0.058506
    25  H    0.476881   0.476881  -0.071611  -0.102328   0.079842
    26  H    0.476881   0.476881   0.071611  -0.102328   0.079842
    27  H    0.476881   0.476881   0.102328  -0.071611  -0.079842
    28  H    0.476881   0.476881   0.102328   0.071611  -0.079842
    29  H    0.476881   0.476881   0.071611   0.102328   0.079842
    30  H    0.476881   0.476881  -0.071611   0.102328   0.079842
    31  H    0.476881   0.476881  -0.102328   0.071611  -0.079842
    32  H    0.476881   0.476881  -0.102328  -0.071611  -0.079842
    33  H    0.477561   0.477561  -0.119250  -0.062751  -0.060217
    34  H    0.477561   0.477561  -0.062751  -0.119250   0.060217
    35  H    0.477561   0.477561   0.062751  -0.119250   0.060217
    36  H    0.477561   0.477561   0.119250  -0.062751  -0.060217
    37  H    0.477561   0.477561   0.119250   0.062751  -0.060217
    38  H    0.477561   0.477561   0.062751   0.119250   0.060217
    39  H    0.477561   0.477561  -0.062751   0.119250   0.060217
    40  H    0.477561   0.477561  -0.119250   0.062751  -0.060217
    41  C    3.000107   3.000107  -0.004677  -0.027187  -0.004981
    42  C    3.000107   3.000107   0.004677  -0.027187  -0.004981
    43  C    3.000107   3.000107   0.027187   0.004677   0.004981
    44  C    3.000107   3.000107   0.027187  -0.004677   0.004981
    45  C    3.000107   3.000107  -0.004677   0.027187  -0.004981
    46  C    3.000107   3.000107   0.004677   0.027187  -0.004981
    47  C    3.000107   3.000107  -0.027187   0.004677   0.004981
    48  C    3.000107   3.000107  -0.027187  -0.004677   0.004981
       Tot 104.000013 104.000013  -0.000000   0.000000  -0.000000

 Dip from Atomic Chgs              0.000000  -0.000000  -0.000000
         Total Dipole              0.000000  -0.000000  -0.000000

 Hirshfeld charges, spin densities, dipoles, and CM5 charges using IRadAn=      5:
              Q-H        S-H        Dx         Dy         Dz        Q-CM5   
     1  C   -0.003463   0.000000  -0.006781   0.005909   0.001782  -0.010434
     2  C   -0.042448   0.000000  -0.056415  -0.023401   0.024978  -0.095341
     3  C   -0.042448   0.000000   0.056415  -0.023401   0.024978  -0.095341
     4  C   -0.003463   0.000000   0.006781   0.005909   0.001782  -0.010434
     5  C   -0.003463   0.000000  -0.005909  -0.006781  -0.001782  -0.010434
     6  C   -0.042448   0.000000   0.023401  -0.056415  -0.024978  -0.095341
     7  C   -0.042448   0.000000   0.023401   0.056415  -0.024978  -0.095341
     8  C   -0.003463   0.000000  -0.005909   0.006781  -0.001782  -0.010434
     9  C   -0.003463   0.000000   0.006781  -0.005909   0.001782  -0.010434
    10  C   -0.042448   0.000000   0.056415   0.023401   0.024978  -0.095341
    11  C   -0.042448   0.000000  -0.056415   0.023401   0.024978  -0.095341
    12  C   -0.003463   0.000000  -0.006781  -0.005909   0.001782  -0.010434
    13  C   -0.003463   0.000000   0.005909   0.006781  -0.001782  -0.010434
    14  C   -0.042448   0.000000  -0.023401   0.056415  -0.024978  -0.095341
    15  C   -0.042448   0.000000  -0.023401  -0.056415  -0.024978  -0.095341
    16  C   -0.003463   0.000000   0.005909  -0.006781  -0.001782  -0.010434
    17  C   -0.044994   0.000000  -0.039255   0.000175  -0.058506  -0.097848
    18  C   -0.044994   0.000000   0.000175  -0.039255   0.058506  -0.097848
    19  C   -0.044994   0.000000  -0.000175  -0.039255   0.058506  -0.097848
    20  C   -0.044994   0.000000   0.039255   0.000175  -0.058506  -0.097848
    21  C   -0.044994   0.000000   0.039255  -0.000175  -0.058506  -0.097848
    22  C   -0.044994   0.000000  -0.000175   0.039255   0.058506  -0.097848
    23  C   -0.044994   0.000000   0.000175   0.039255   0.058506  -0.097848
    24  C   -0.044994   0.000000  -0.039255  -0.000175  -0.058506  -0.097848
    25  H    0.046238   0.000000  -0.071611  -0.102328   0.079842   0.102744
    26  H    0.046238   0.000000   0.071611  -0.102328   0.079842   0.102744
    27  H    0.046238   0.000000   0.102328  -0.071611  -0.079842   0.102744
    28  H    0.046238   0.000000   0.102328   0.071611  -0.079842   0.102744
    29  H    0.046238   0.000000   0.071611   0.102328   0.079842   0.102744
    30  H    0.046238   0.000000  -0.071611   0.102328   0.079842   0.102744
    31  H    0.046238   0.000000  -0.102328   0.071611  -0.079842   0.102744
    32  H    0.046238   0.000000  -0.102328  -0.071611  -0.079842   0.102744
    33  H    0.044879   0.000000  -0.119250  -0.062751  -0.060217   0.101470
    34  H    0.044879   0.000000  -0.062751  -0.119250   0.060217   0.101470
    35  H    0.044879   0.000000   0.062751  -0.119250   0.060217   0.101470
    36  H    0.044879   0.000000   0.119250  -0.062751  -0.060217   0.101470
    37  H    0.044879   0.000000   0.119250   0.062751  -0.060217   0.101470
    38  H    0.044879   0.000000   0.062751   0.119250   0.060217   0.101470
    39  H    0.044879   0.000000  -0.062751   0.119250   0.060217   0.101470
    40  H    0.044879   0.000000  -0.119250   0.062751  -0.060217   0.101470
    41  C   -0.000214   0.000000  -0.004677  -0.027187  -0.004981  -0.000594
    42  C   -0.000214   0.000000   0.004677  -0.027187  -0.004981  -0.000594
    43  C   -0.000214   0.000000   0.027187   0.004677   0.004981  -0.000594
    44  C   -0.000214   0.000000   0.027187  -0.004677   0.004981  -0.000594
    45  C   -0.000214   0.000000  -0.004677   0.027187  -0.004981  -0.000594
    46  C   -0.000214   0.000000   0.004677   0.027187  -0.004981  -0.000594
    47  C   -0.000214   0.000000  -0.027187   0.004677   0.004981  -0.000594
    48  C   -0.000214   0.000000  -0.027187  -0.004677   0.004981  -0.000594
       Tot  -0.000027   0.000000  -0.000000   0.000000  -0.000000  -0.000027
 Hirshfeld charges with hydrogens summed into heavy atoms:
              Q-H       Q-CM5   
     1  C   -0.003463  -0.010434
     2  C    0.003790   0.007403
     3  C    0.003790   0.007403
     4  C   -0.003463  -0.010434
     5  C   -0.003463  -0.010434
     6  C    0.003790   0.007403
     7  C    0.003790   0.007403
     8  C   -0.003463  -0.010434
     9  C   -0.003463  -0.010434
    10  C    0.003790   0.007403
    11  C    0.003790   0.007403
    12  C   -0.003463  -0.010434
    13  C   -0.003463  -0.010434
    14  C    0.003790   0.007403
    15  C    0.003790   0.007403
    16  C   -0.003463  -0.010434
    17  C   -0.000115   0.003622
    18  C   -0.000115   0.003622
    19  C   -0.000115   0.003622
    20  C   -0.000115   0.003622
    21  C   -0.000115   0.003622
    22  C   -0.000115   0.003622
    23  C   -0.000115   0.003622
    24  C   -0.000115   0.003622
    41  C   -0.000214  -0.000594
    42  C   -0.000214  -0.000594
    43  C   -0.000214  -0.000594
    44  C   -0.000214  -0.000594
    45  C   -0.000214  -0.000594
    46  C   -0.000214  -0.000594
    47  C   -0.000214  -0.000594
    48  C   -0.000214  -0.000594
 
 EQQ=  0.00000000000     EQD=  0.00000000000     EDD= 0.180451642005E-01
 EQQ+QD+DD= 0.180451642005E-01
 
 1\1\GINC-CU09\SP\RB3LYP\6-311G(d)\C32H16\WANG\07-Jul-2025\0\\# B3LYP/6
 -311G* Pop=Hirshfeld NOSYMM\\From ../../8circulene_opt.out\\0,1\C,0,-1
 .373138,-2.71009,1.020196\C,0,-0.680901,-3.542601,1.938306\C,0,0.68090
 1,-3.542601,1.938306\C,0,1.373138,-2.71009,1.020196\C,0,2.71009,-1.373
 138,-1.020196\C,0,3.542601,-0.680901,-1.938306\C,0,3.542601,0.680901,-
 1.938306\C,0,2.71009,1.373138,-1.020196\C,0,1.373138,2.71009,1.020196\
 C,0,0.680901,3.542601,1.938306\C,0,-0.680901,3.542601,1.938306\C,0,-1.
 373138,2.71009,1.020196\C,0,-2.71009,1.373138,-1.020196\C,0,-3.542601,
 0.680901,-1.938306\C,0,-3.542601,-0.680901,-1.938306\C,0,-2.71009,-1.3
 73138,-1.020196\C,0,-3.184022,-2.64082,-0.559062\C,0,-2.64082,-3.18402
 2,0.559062\C,0,2.64082,-3.184022,0.559062\C,0,3.184022,-2.64082,-0.559
 062\C,0,3.184022,2.64082,-0.559062\C,0,2.64082,3.184022,0.559062\C,0,-
 2.64082,3.184022,0.559062\C,0,-3.184022,2.64082,-0.559062\H,0,-1.24369
 5,-4.27672,2.509102\H,0,1.243695,-4.27672,2.509102\H,0,4.27672,-1.2436
 95,-2.509102\H,0,4.27672,1.243695,-2.509102\H,0,1.243695,4.27672,2.509
 102\H,0,-1.243695,4.27672,2.509102\H,0,-4.27672,1.243695,-2.509102\H,0
 ,-4.27672,-1.243695,-2.509102\H,0,-4.065054,-3.068501,-1.029818\H,0,-3
 .068501,-4.065054,1.029818\H,0,3.068501,-4.065054,1.029818\H,0,4.06505
 4,-3.068501,-1.029818\H,0,4.065054,3.068501,-1.029818\H,0,3.068501,4.0
 65054,1.029818\H,0,-3.068501,4.065054,1.029818\H,0,-4.065054,3.068501,
 -1.029818\C,0,-0.722494,1.596579,0.400703\C,0,0.722494,1.596579,0.4007
 03\C,0,-1.596579,0.722494,-0.400703\C,0,-1.596579,-0.722494,-0.400703\
 C,0,-0.722494,-1.596579,0.400703\C,0,0.722494,-1.596579,0.400703\C,0,1
 .596579,0.722494,-0.400703\C,0,1.596579,-0.722494,-0.400703\\Version=E
 S64L-G16RevB.01\HF=-1229.2562884\RMSD=5.437e-09\Dipole=0.,0.,0.\Quadru
 pole=4.7221347,4.7221347,-9.4442694,0.,0.,0.\PG=D02D [X(C32H16)]\\@


 IT IS A CAPITAL MISTAKE TO THEORIZE BEFORE ONE HAS
 DATA.  INSENSIBLY ONE BEGINS TO TWIST FACTS TO SUIT
 THEORIES RATHER THAN THEORIES TO SUIT FACTS.

                                         -- SHERLOCK HOLMES
 Job cpu time:       0 days  0 hours 26 minutes  0.9 seconds.
 Elapsed time:       0 days  0 hours  0 minutes 56.3 seconds.
 File lengths (MBytes):  RWF=    214 Int=      0 D2E=      0 Chk=     24 Scr=      1
 Normal termination of Gaussian 16 at Mon Jul  7 22:02:35 2025.
