 Entering Gaussian System, Link 0=g16
 Initial command:
 /opt/software/g16/l1.exe "/tmp/corannulene_sgp-15568.tmp/Gau-4826.inp" -scrdir="/tmp/corannulene_sgp-15568.tmp/"
 Entering Link 1 = /opt/software/g16/l1.exe PID=      4827.
  
 Copyright (c) 1988-2017, Gaussian, Inc.  All Rights Reserved.
  
 This is part of the Gaussian(R) 16 program.  It is based on
 the Gaussian(R) 09 system (copyright 2009, Gaussian, Inc.),
 the Gaussian(R) 03 system (copyright 2003, Gaussian, Inc.),
 the Gaussian(R) 98 system (copyright 1998, Gaussian, Inc.),
 the Gaussian(R) 94 system (copyright 1995, Gaussian, Inc.),
 the Gaussian 92(TM) system (copyright 1992, Gaussian, Inc.),
 the Gaussian 90(TM) system (copyright 1990, Gaussian, Inc.),
 the Gaussian 88(TM) system (copyright 1988, Gaussian, Inc.),
 the Gaussian 86(TM) system (copyright 1986, Carnegie Mellon
 University), and the Gaussian 82(TM) system (copyright 1983,
 Carnegie Mellon University). Gaussian is a federally registered
 trademark of Gaussian, Inc.
  
 This software contains proprietary and confidential information,
 including trade secrets, belonging to Gaussian, Inc.
  
 This software is provided under written license and may be
 used, copied, transmitted, or stored only in accord with that
 written license.
  
 The following legend is applicable only to US Government
 contracts under FAR:
  
                    RESTRICTED RIGHTS LEGEND
  
 Use, reproduction and disclosure by the US Government is
 subject to restrictions as set forth in subparagraphs (a)
 and (c) of the Commercial Computer Software - Restricted
 Rights clause in FAR 52.227-19.
  
 Gaussian, Inc.
 340 Quinnipiac St., Bldg. 40, Wallingford CT 06492
  
  
 ---------------------------------------------------------------
 Warning -- This program may not be used in any manner that
 competes with the business of Gaussian, Inc. or will provide
 assistance to any competitor of Gaussian, Inc.  The licensee
 of this program is prohibited from giving any competitor of
 Gaussian, Inc. access to this program.  By using this program,
 the user acknowledges that Gaussian, Inc. is engaged in the
 business of creating and licensing software in the field of
 computational chemistry and represents and warrants to the
 licensee that it is not a competitor of Gaussian, Inc. and that
 it will not use this program in any manner prohibited above.
 ---------------------------------------------------------------
  

 Cite this work as:
 Gaussian 16, Revision B.01,
 M. J. Frisch, G. W. Trucks, H. B. Schlegel, G. E. Scuseria, 
 M. A. Robb, J. R. Cheeseman, G. Scalmani, V. Barone, 
 G. A. Petersson, H. Nakatsuji, X. Li, M. Caricato, A. V. Marenich, 
 J. Bloino, B. G. Janesko, R. Gomperts, B. Mennucci, H. P. Hratchian, 
 J. V. Ortiz, A. F. Izmaylov, J. L. Sonnenberg, D. Williams-Young, 
 F. Ding, F. Lipparini, F. Egidi, J. Goings, B. Peng, A. Petrone, 
 T. Henderson, D. Ranasinghe, V. G. Zakrzewski, J. Gao, N. Rega, 
 G. Zheng, W. Liang, M. Hada, M. Ehara, K. Toyota, R. Fukuda, 
 J. Hasegawa, M. Ishida, T. Nakajima, Y. Honda, O. Kitao, H. Nakai, 
 T. Vreven, K. Throssell, J. A. Montgomery, Jr., J. E. Peralta, 
 F. Ogliaro, M. J. Bearpark, J. J. Heyd, E. N. Brothers, K. N. Kudin, 
 V. N. Staroverov, T. A. Keith, R. Kobayashi, J. Normand, 
 K. Raghavachari, A. P. Rendell, J. C. Burant, S. S. Iyengar, 
 J. Tomasi, M. Cossi, J. M. Millam, M. Klene, C. Adamo, R. Cammi, 
 J. W. Ochterski, R. L. Martin, K. Morokuma, O. Farkas, 
 J. B. Foresman, and D. J. Fox, Gaussian, Inc., Wallingford CT, 2016.
 
 ******************************************
 Gaussian 16:  ES64L-G16RevB.01 20-Dec-2017
                10-Jun-2025 
 ******************************************
 %nproc=18
 Will use up to   18 processors via shared memory.
 ------------------------------------
 # B3LYP/6-311G* Pop=Hirshfeld NOSYMM
 ------------------------------------
 1/38=1,172=1/1;
 2/12=2,15=1,17=6,18=5,40=1/2;
 3/5=4,6=6,7=1,11=2,25=1,30=1,74=-5/1,2,3;
 4//1;
 5/5=2,38=5/2;
 6/7=2,8=2,9=2,10=2,28=1,79=1/1;
 99/5=1,9=1/99;
 ------------------------------
 From ../../corannulene_opt.out
 ------------------------------
 Symbolic Z-matrix:
 Charge =  0 Multiplicity = 1
 6                     1.05106   3.09334  -0.2567 
 6                     2.24164   2.37665  -0.25674 
 1                     3.14243   2.87272  -0.61149 
 6                     2.29233   0.97086   0.08675 
 6                     3.2667   -0.04374  -0.25675 
 6                     2.95303  -1.39752  -0.25665 
 1                     3.70321  -2.10094  -0.61132 
 6                     1.63172  -1.88015   0.08691 
 6                     0.96789  -3.12038  -0.2566 
 6                    -0.41657  -3.24036  -0.25665 
 1                    -0.85375  -4.17116  -0.61138 
 6                    -1.28389  -2.13283   0.08684 
 6                    -2.66854  -1.88474  -0.25671 
 6                    -3.21049  -0.60512  -0.25673 
 1                    -4.23084  -0.47698  -0.61147 
 6                    -2.42521   0.56199   0.0868 
 6                    -2.61713   1.95554  -0.25671 
 6                    -1.56762   2.86639  -0.25666 
 1                    -1.76106   3.87641  -0.61135 
 6                    -0.21497   2.48018   0.08684 
 6                    -0.10407   1.20051   0.60429 
 6                     1.10959   0.46995   0.60429 
 6                     0.78982  -0.91005   0.60435 
 6                    -0.62146  -1.03238   0.60434 
 6                    -1.17392   0.27202   0.6043 
 1                     4.24978   0.25804  -0.6115 
 1                     1.55871  -3.96209  -0.6113 
 1                    -3.28647  -2.70675  -0.61143 
 1                    -3.58985   2.28923  -0.61143 
 1                     1.06782   4.12158  -0.6114 
 
                          Input orientation:                          
 ---------------------------------------------------------------------
 Center     Atomic      Atomic             Coordinates (Angstroms)
 Number     Number       Type             X           Y           Z
 ---------------------------------------------------------------------
      1          6           0        1.051058    3.093339   -0.256699
      2          6           0        2.241637    2.376650   -0.256744
      3          1           0        3.142434    2.872718   -0.611488
      4          6           0        2.292327    0.970862    0.086749
      5          6           0        3.266699   -0.043735   -0.256749
      6          6           0        2.953030   -1.397520   -0.256645
      7          1           0        3.703207   -2.100944   -0.611322
      8          6           0        1.631715   -1.880154    0.086905
      9          6           0        0.967887   -3.120377   -0.256598
     10          6           0       -0.416569   -3.240356   -0.256650
     11          1           0       -0.853754   -4.171161   -0.611383
     12          6           0       -1.283886   -2.132833    0.086836
     13          6           0       -2.668538   -1.884740   -0.256706
     14          6           0       -3.210495   -0.605124   -0.256729
     15          1           0       -4.230841   -0.476983   -0.611468
     16          6           0       -2.425211    0.561987    0.086797
     17          6           0       -2.617129    1.955536   -0.256709
     18          6           0       -1.567622    2.866392   -0.256655
     19          1           0       -1.761057    3.876414   -0.611346
     20          6           0       -0.214970    2.480182    0.086835
     21          6           0       -0.104067    1.200509    0.604293
     22          6           0        1.109592    0.469952    0.604288
     23          6           0        0.789824   -0.910053    0.604351
     24          6           0       -0.621463   -1.032380    0.604338
     25          6           0       -1.173915    0.272021    0.604298
     26          1           0        4.249780    0.258044   -0.611499
     27          1           0        1.558712   -3.962090   -0.611298
     28          1           0       -3.286469   -2.706749   -0.611431
     29          1           0       -3.589850    2.289228   -0.611434
     30          1           0        1.067820    4.121578   -0.611395
 ---------------------------------------------------------------------
                    Distance matrix (angstroms):
                    1          2          3          4          5
     1  C    0.000000
     2  C    1.389648   0.000000
     3  H    2.132698   1.087824   0.000000
     4  C    2.482663   1.448032   2.197106   0.000000
     5  C    3.840612   2.628501   2.940575   1.448033   0.000000
     6  C    4.877019   3.840630   4.289140   2.482676   1.389648
     7  H    5.842964   4.723427   5.005175   3.451649   2.132691
     8  C    5.019050   4.313987   5.035853   2.926551   2.482681
     9  C    6.214273   5.642672   6.385279   4.313962   3.840607
    10  C    6.501509   6.214243   7.082520   5.019004   4.876971
    11  H    7.518449   7.251279   8.098503   6.068411   5.842905
    12  C    5.734357   5.734352   6.718296   4.735211   5.018984
    13  C    6.214231   6.501482   7.518422   5.734336   6.214205
    14  C    5.642647   6.214235   7.251272   5.734349   6.501477
    15  H    6.385258   7.082515   8.098499   6.718295   7.518420
    16  C    4.313952   5.019013   6.068422   4.735224   5.734349
    17  C    3.840598   4.876981   5.842915   5.018994   6.214219
    18  C    2.628496   3.840612   4.723407   4.313950   5.642650
    19  H    2.940573   4.289125   5.005160   5.035821   6.385267
    20  C    1.448035   2.482677   3.451652   2.926531   4.313957
    21  C    2.378745   2.761706   3.848919   2.462376   3.694807
    22  C    2.761681   2.378739   3.373995   1.384781   2.378733
    23  C    4.103267   3.694816   4.617618   2.462370   2.761686
    24  C    4.534343   4.534346   5.558322   3.573660   4.103254
    25  C    3.694815   4.103273   5.183882   3.573663   4.534331
    26  H    4.289126   2.940575   2.839496   2.197108   1.087826
    27  H    7.082551   6.385274   7.015895   5.035819   4.289106
    28  H    7.251275   7.518424   8.512417   6.718277   7.082475
    29  H    4.723395   5.842918   6.757522   6.068406   7.251261
    30  H    1.087826   2.132697   2.421503   3.451642   4.723418
                    6          7          8          9         10
     6  C    0.000000
     7  H    1.087827   0.000000
     8  C    1.448045   2.197123   0.000000
     9  C    2.628503   2.940586   1.448038   0.000000
    10  C    3.840604   4.289127   2.482669   1.389645   0.000000
    11  H    4.723402   5.005167   3.451648   2.132697   1.087825
    12  C    4.313945   5.035825   2.926530   2.482674   1.448043
    13  C    5.642642   6.385267   4.313962   3.840623   2.628509
    14  C    6.214252   7.082548   5.019042   4.877025   3.840634
    15  H    7.251296   8.098541   6.068458   5.842965   4.723431
    16  C    5.734378   6.718339   4.735261   5.019048   4.313979
    17  C    6.501512   7.518472   5.734393   6.214277   5.642673
    18  C    6.214277   7.251335   5.734413   6.501554   6.214281
    19  H    7.082571   8.098579   6.718373   7.518515   7.251336
    20  C    5.019041   6.068464   4.735269   5.734401   5.734386
    21  C    4.103268   5.183883   3.573670   4.534344   4.534332
    22  C    2.761688   3.848903   2.462376   3.694816   4.103263
    23  C    2.378739   3.374001   1.384784   2.378754   2.761706
    24  C    3.694810   4.617622   2.462371   2.761698   2.378748
    25  C    4.534343   5.558328   3.573669   4.103270   3.694807
    26  H    2.132692   2.421480   3.451655   4.723400   5.842905
    27  H    2.940565   2.839493   2.197106   1.087827   2.132700
    28  H    6.385241   7.015880   5.035818   4.289119   2.940567
    29  H    7.518462   8.512479   6.718345   7.082563   6.385286
    30  H    5.842971   6.757592   6.068475   7.251330   7.518466
                   11         12         13         14         15
    11  H    0.000000
    12  C    2.197113   0.000000
    13  C    2.940571   1.448044   0.000000
    14  C    4.289129   2.482691   1.389653   0.000000
    15  H    5.005164   3.451668   2.132704   1.087826   0.000000
    16  C    5.035834   2.926547   2.482675   1.448043   2.197119
    17  C    6.385272   4.313968   3.840620   2.628510   2.940590
    18  C    7.082555   5.019038   4.877015   3.840632   4.289147
    19  H    8.098559   6.068459   5.842960   4.723432   5.005187
    20  C    6.718327   4.735239   5.019020   4.313968   5.035839
    21  C    5.558303   3.573640   4.103242   3.694802   4.617610
    22  C    5.183871   3.573651   4.534330   4.534346   5.558325
    23  C    3.848920   2.462374   3.694821   4.103290   5.183902
    24  C    3.374001   1.384778   2.378746   2.761715   3.848930
    25  C    4.617602   2.462353   2.761674   2.378741   3.374002
    26  H    6.757508   6.068396   7.251243   7.518419   8.512414
    27  H    2.421508   3.451657   4.723427   5.842968   6.757581
    28  H    2.839473   2.197111   1.087827   2.132701   2.421507
    29  H    7.015900   5.035839   4.289132   2.940578   2.839506
    30  H    8.512460   6.718311   7.082516   6.385255   7.015880
                   16         17         18         19         20
    16  C    0.000000
    17  C    1.448036   0.000000
    18  C    2.482680   1.389649   0.000000
    19  H    3.451656   2.132698   1.087827   0.000000
    20  C    2.926540   2.482669   1.448037   2.197113   0.000000
    21  C    2.462361   2.761679   2.378737   3.373998   1.384783
    22  C    3.573668   4.103258   3.694810   4.617616   2.462366
    23  C    3.573684   4.534353   4.534360   5.558343   3.573671
    24  C    2.462389   3.694824   4.103285   5.183900   3.573673
    25  C    1.384785   2.378744   2.761703   3.848919   2.462381
    26  H    6.718296   7.082499   6.385261   7.015894   5.035828
    27  H    6.068464   7.251323   7.518504   8.512521   6.718348
    28  H    3.451655   4.723425   5.842962   6.757582   6.068438
    29  H    2.197105   1.087826   2.132696   2.421496   3.451646
    30  H    5.035814   4.289101   2.940559   2.839481   2.197102
                   21         22         23         24         25
    21  C    0.000000
    22  C    1.416574   0.000000
    23  C    2.292054   1.416568   0.000000
    24  C    2.292050   2.292063   1.416579   0.000000
    25  C    1.416568   2.292069   2.292067   1.416568   0.000000
    26  H    4.617616   3.373992   3.848901   5.183866   5.558311
    27  H    5.558320   4.617613   3.374007   3.848913   5.183881
    28  H    5.183853   5.558305   4.617619   3.373998   3.848890
    29  H    3.848894   5.183869   5.558334   4.617630   3.373999
    30  H    3.373998   3.848896   5.183882   5.558324   4.617616
                   26         27         28         29         30
    26  H    0.000000
    27  H    5.005135   0.000000
    28  H    8.098460   5.005163   0.000000
    29  H    8.098488   8.098560   5.005180   0.000000
    30  H    5.005174   8.098559   8.098511   5.005137   0.000000
 Symmetry turned off by external request.
 Stoichiometry    C20H10
 Framework group  C1[X(C20H10)]
 Deg. of freedom    84
 Full point group                 C1      NOp   1
 Rotational constants (GHZ):           0.5078233           0.5078149           0.2628792
 Standard basis: 6-311G(d) (5D, 7F)
   390 basis functions,   690 primitive gaussians,   410 cartesian basis functions
    65 alpha electrons       65 beta electrons
       nuclear repulsion energy      1383.3087479246 Hartrees.
 NAtoms=   30 NActive=   30 NUniq=   30 SFac= 1.00D+00 NAtFMM=   60 NAOKFM=F Big=F
 Integral buffers will be    131072 words long.
 Raffenetti 2 integral format.
 Two-electron integral symmetry is turned off.
 One-electron integrals computed using PRISM.
 NBasis=   390 RedAO= T EigKep=  8.31D-05  NBF=   390
 NBsUse=   390 1.00D-06 EigRej= -1.00D+00 NBFU=   390
 ExpMin= 1.03D-01 ExpMax= 4.56D+03 ExpMxC= 6.82D+02 IAcc=3 IRadAn=         5 AccDes= 0.00D+00
 Harris functional with IExCor=  402 and IRadAn=       5 diagonalized for initial guess.
 HarFok:  IExCor=  402 AccDes= 0.00D+00 IRadAn=         5 IDoV= 1 UseB2=F ITyADJ=14
 ICtDFT=  3500011 ScaDFX=  1.000000  1.000000  1.000000  1.000000
 FoFCou: FMM=F IPFlag=           0 FMFlag=      100000 FMFlg1=           0
         NFxFlg=           0 DoJE=T BraDBF=F KetDBF=T FulRan=T
         wScrn=  0.000000 ICntrl=       500 IOpCl=  0 I1Cent=   200000004 NGrid=           0
         NMat0=    1 NMatS0=      1 NMatT0=    0 NMatD0=    1 NMtDS0=    0 NMtDT0=    0
 Symmetry not used in FoFCou.
 Requested convergence on RMS density matrix=1.00D-08 within 128 cycles.
 Requested convergence on MAX density matrix=1.00D-06.
 Requested convergence on             energy=1.00D-06.
 No special actions if energy rises.
 Integral accuracy reduced to 1.0D-05 until final iterations.
 Initial convergence to 1.0D-05 achieved.  Increase integral accuracy.
 SCF Done:  E(RB3LYP) =  -768.297491505     A.U. after   14 cycles
            NFock= 14  Conv=0.50D-08     -V/T= 2.0043

 **********************************************************************

            Population analysis using the SCF Density.

 **********************************************************************

 Alpha  occ. eigenvalues --  -10.19392 -10.19392 -10.19390 -10.19390 -10.19389
 Alpha  occ. eigenvalues --  -10.19076 -10.19076 -10.19075 -10.19074 -10.19073
 Alpha  occ. eigenvalues --  -10.19022 -10.19021 -10.19021 -10.19020 -10.19020
 Alpha  occ. eigenvalues --  -10.17157 -10.17128 -10.17128 -10.17076 -10.17076
 Alpha  occ. eigenvalues --   -0.92325  -0.86374  -0.86374  -0.81256  -0.80575
 Alpha  occ. eigenvalues --   -0.80575  -0.73965  -0.73965  -0.72285  -0.72285
 Alpha  occ. eigenvalues --   -0.64472  -0.64472  -0.63753  -0.59930  -0.59930
 Alpha  occ. eigenvalues --   -0.58295  -0.52163  -0.52163  -0.51249  -0.50518
 Alpha  occ. eigenvalues --   -0.50518  -0.45518  -0.45518  -0.43993  -0.43533
 Alpha  occ. eigenvalues --   -0.43533  -0.42610  -0.42610  -0.41773  -0.40599
 Alpha  occ. eigenvalues --   -0.40599  -0.38897  -0.37721  -0.37720  -0.34412
 Alpha  occ. eigenvalues --   -0.34411  -0.33618  -0.33618  -0.31179  -0.30652
 Alpha  occ. eigenvalues --   -0.30651  -0.23506  -0.23506  -0.22814  -0.22814
 Alpha virt. eigenvalues --   -0.06870  -0.06870  -0.01339   0.00042   0.01197
 Alpha virt. eigenvalues --    0.01197   0.04977   0.05625   0.05625   0.07085
 Alpha virt. eigenvalues --    0.07085   0.08672   0.08673   0.09289   0.09289
 Alpha virt. eigenvalues --    0.12372   0.12372   0.14952   0.17941   0.17941
 Alpha virt. eigenvalues --    0.18742   0.22094   0.22094   0.23772   0.23772
 Alpha virt. eigenvalues --    0.24066   0.24067   0.26454   0.27969   0.27969
 Alpha virt. eigenvalues --    0.29131   0.29131   0.32468   0.32468   0.33925
 Alpha virt. eigenvalues --    0.34664   0.36281   0.36495   0.36495   0.37186
 Alpha virt. eigenvalues --    0.37186   0.38547   0.38547   0.39161   0.39161
 Alpha virt. eigenvalues --    0.39305   0.41862   0.42920   0.42920   0.43072
 Alpha virt. eigenvalues --    0.43485   0.43485   0.44027   0.44895   0.44895
 Alpha virt. eigenvalues --    0.45717   0.45717   0.48167   0.48167   0.48805
 Alpha virt. eigenvalues --    0.48805   0.49350   0.49351   0.50214   0.50929
 Alpha virt. eigenvalues --    0.50929   0.52033   0.52034   0.53219   0.53592
 Alpha virt. eigenvalues --    0.53592   0.54916   0.54916   0.58380   0.58381
 Alpha virt. eigenvalues --    0.60857   0.61040   0.61197   0.61197   0.61966
 Alpha virt. eigenvalues --    0.61966   0.62556   0.62557   0.63683   0.64726
 Alpha virt. eigenvalues --    0.64727   0.66253   0.66254   0.68374   0.69755
 Alpha virt. eigenvalues --    0.69756   0.71086   0.71088   0.71793   0.71794
 Alpha virt. eigenvalues --    0.75909   0.75909   0.76760   0.76761   0.76794
 Alpha virt. eigenvalues --    0.76956   0.77585   0.77585   0.78371   0.78371
 Alpha virt. eigenvalues --    0.82322   0.82322   0.83485   0.83485   0.83581
 Alpha virt. eigenvalues --    0.83756   0.86150   0.86152   0.87935   0.87936
 Alpha virt. eigenvalues --    0.89245   0.89245   0.89485   0.92110   0.93210
 Alpha virt. eigenvalues --    0.93211   0.99950   0.99950   0.99958   0.99958
 Alpha virt. eigenvalues --    1.03282   1.03332   1.03333   1.03516   1.03517
 Alpha virt. eigenvalues --    1.11476   1.13614   1.13615   1.16885   1.16886
 Alpha virt. eigenvalues --    1.17294   1.20774   1.20775   1.20940   1.20941
 Alpha virt. eigenvalues --    1.22872   1.25728   1.25729   1.26272   1.26272
 Alpha virt. eigenvalues --    1.30441   1.36571   1.36633   1.36634   1.38194
 Alpha virt. eigenvalues --    1.38195   1.39405   1.39405   1.39709   1.41011
 Alpha virt. eigenvalues --    1.41011   1.45025   1.48346   1.48346   1.50463
 Alpha virt. eigenvalues --    1.53958   1.53959   1.54689   1.54690   1.56397
 Alpha virt. eigenvalues --    1.56398   1.58318   1.59906   1.59907   1.61634
 Alpha virt. eigenvalues --    1.61946   1.61946   1.65806   1.65806   1.69117
 Alpha virt. eigenvalues --    1.69118   1.72059   1.72060   1.76943   1.76944
 Alpha virt. eigenvalues --    1.78657   1.78657   1.81121   1.81346   1.81347
 Alpha virt. eigenvalues --    1.81846   1.81847   1.85381   1.88251   1.88967
 Alpha virt. eigenvalues --    1.89574   1.89574   1.91686   1.91686   1.95634
 Alpha virt. eigenvalues --    1.95634   1.97686   1.97686   1.99979   1.99980
 Alpha virt. eigenvalues --    2.02955   2.02955   2.05299   2.05299   2.10831
 Alpha virt. eigenvalues --    2.14902   2.14903   2.15250   2.16099   2.16099
 Alpha virt. eigenvalues --    2.17053   2.17054   2.24579   2.26046   2.26047
 Alpha virt. eigenvalues --    2.26748   2.26748   2.29738   2.34324   2.34324
 Alpha virt. eigenvalues --    2.38878   2.38879   2.39178   2.39234   2.39234
 Alpha virt. eigenvalues --    2.45249   2.45994   2.45994   2.48515   2.50343
 Alpha virt. eigenvalues --    2.50343   2.51206   2.51206   2.52642   2.57662
 Alpha virt. eigenvalues --    2.57663   2.58546   2.58546   2.65780   2.65780
 Alpha virt. eigenvalues --    2.67921   2.70633   2.70634   2.74422   2.75904
 Alpha virt. eigenvalues --    2.75905   2.80912   2.80913   2.85573   2.85574
 Alpha virt. eigenvalues --    2.88567   2.88810   2.88810   2.97212   2.98186
 Alpha virt. eigenvalues --    2.98187   3.01817   3.01817   3.06794   3.06794
 Alpha virt. eigenvalues --    3.10258   3.11917   3.11919   3.12912   3.12913
 Alpha virt. eigenvalues --    3.20198   3.20198   3.21588   3.21588   3.21998
 Alpha virt. eigenvalues --    3.25741   3.26375   3.26375   3.27328   3.27328
 Alpha virt. eigenvalues --    3.28874   3.28875   3.29270   3.29270   3.36826
 Alpha virt. eigenvalues --    3.42040   3.42040   3.46604   3.46605   3.49051
 Alpha virt. eigenvalues --    3.50278   3.50278   3.54853   3.54854   3.68112
 Alpha virt. eigenvalues --    3.80114   3.80116   3.80658   3.80658   3.85950
 Alpha virt. eigenvalues --    4.03402   4.03403   4.16464   4.16466   4.54278
 Alpha virt. eigenvalues --    4.64721   4.64722   4.75297   4.86419   4.86420
 Alpha virt. eigenvalues --   23.10472  23.42721  23.42722  23.60222  23.60223
 Alpha virt. eigenvalues --   23.74351  23.85333  23.85333  23.93312  23.93313
 Alpha virt. eigenvalues --   24.01425  24.01426  24.02188  24.02780  24.02781
 Alpha virt. eigenvalues --   24.05087  24.10893  24.10894  24.15063  24.15064
          Condensed to atoms (all electrons):
               1          2          3          4          5          6
     1  C    5.027448   0.573793  -0.041306  -0.034185   0.004206  -0.000161
     2  C    0.573793   5.027459   0.390054   0.457833  -0.062092   0.004206
     3  H   -0.041306   0.390054   0.497244  -0.046054  -0.002287  -0.000060
     4  C   -0.034185   0.457833  -0.046054   4.794813   0.457829  -0.034187
     5  C    0.004206  -0.062092  -0.002287   0.457829   5.027461   0.573799
     6  C   -0.000161   0.004206  -0.000060  -0.034187   0.573799   5.027448
     7  H    0.000007  -0.000287  -0.000018   0.005542  -0.041307   0.390054
     8  C    0.000036   0.000331   0.000036  -0.028948  -0.034180   0.457836
     9  C    0.000003  -0.000003  -0.000001   0.000331   0.004205  -0.062088
    10  C   -0.000003   0.000003  -0.000000   0.000036  -0.000161   0.004205
    11  H    0.000000   0.000000  -0.000000  -0.000001   0.000007  -0.000287
    12  C    0.000000   0.000000  -0.000000   0.000283   0.000036   0.000331
    13  C    0.000003  -0.000003   0.000000   0.000000   0.000003  -0.000003
    14  C   -0.000003   0.000003   0.000000   0.000000  -0.000003   0.000003
    15  H   -0.000001  -0.000000  -0.000000  -0.000000   0.000000   0.000000
    16  C    0.000331   0.000036  -0.000001   0.000283   0.000000   0.000000
    17  C    0.004205  -0.000161   0.000007   0.000036   0.000003  -0.000003
    18  C   -0.062092   0.004206  -0.000287   0.000331  -0.000003   0.000003
    19  H   -0.002286  -0.000060  -0.000018   0.000036  -0.000001  -0.000000
    20  C    0.457825  -0.034185   0.005541  -0.028948   0.000331   0.000036
    21  C   -0.056686  -0.043818   0.000152  -0.061132   0.010507  -0.000476
    22  C   -0.043820  -0.056696   0.007149   0.509544  -0.056689  -0.043817
    23  C   -0.000475   0.010506  -0.000492  -0.061135  -0.043825  -0.056701
    24  C   -0.000139  -0.000139   0.000008   0.008031  -0.000476   0.010504
    25  C    0.010506  -0.000475   0.000066   0.008031  -0.000138  -0.000138
    26  H   -0.000060  -0.002287   0.003288  -0.046054   0.390053  -0.041306
    27  H   -0.000000  -0.000001   0.000000   0.000036  -0.000060  -0.002286
    28  H    0.000000   0.000000  -0.000000  -0.000000  -0.000000  -0.000001
    29  H   -0.000287   0.000007  -0.000001  -0.000001   0.000000   0.000000
    30  H    0.390053  -0.041307  -0.008189   0.005542  -0.000287   0.000007
               7          8          9         10         11         12
     1  C    0.000007   0.000036   0.000003  -0.000003   0.000000   0.000000
     2  C   -0.000287   0.000331  -0.000003   0.000003   0.000000   0.000000
     3  H   -0.000018   0.000036  -0.000001  -0.000000  -0.000000  -0.000000
     4  C    0.005542  -0.028948   0.000331   0.000036  -0.000001   0.000283
     5  C   -0.041307  -0.034180   0.004205  -0.000161   0.000007   0.000036
     6  C    0.390054   0.457836  -0.062088   0.004205  -0.000287   0.000331
     7  H    0.497247  -0.046056  -0.002287  -0.000060  -0.000018   0.000036
     8  C   -0.046056   4.794846   0.457832  -0.034184   0.005542  -0.028951
     9  C   -0.002287   0.457832   5.027449   0.573799  -0.041306  -0.034182
    10  C   -0.000060  -0.034184   0.573799   5.027436   0.390053   0.457834
    11  H   -0.000018   0.005542  -0.041306   0.390053   0.497245  -0.046055
    12  C    0.000036  -0.028951  -0.034182   0.457834  -0.046055   4.794867
    13  C   -0.000001   0.000331   0.004206  -0.062088  -0.002287   0.457832
    14  C   -0.000000   0.000036  -0.000161   0.004205  -0.000060  -0.034178
    15  H   -0.000000  -0.000001   0.000007  -0.000287  -0.000018   0.005542
    16  C   -0.000000   0.000283   0.000036   0.000331   0.000036  -0.028954
    17  C    0.000000   0.000000   0.000003  -0.000003  -0.000001   0.000331
    18  C    0.000000   0.000000  -0.000003   0.000003  -0.000000   0.000036
    19  H   -0.000000  -0.000000   0.000000   0.000000  -0.000000  -0.000001
    20  C   -0.000001   0.000283   0.000000   0.000000  -0.000000   0.000283
    21  C    0.000066   0.008032  -0.000138  -0.000139   0.000008   0.008033
    22  C    0.000151  -0.061126   0.010504  -0.000475   0.000066   0.008032
    23  C    0.007150   0.509540  -0.056698  -0.043816   0.000152  -0.061131
    24  C   -0.000492  -0.061134  -0.043818  -0.056697   0.007149   0.509528
    25  C    0.000008   0.008033  -0.000476   0.010504  -0.000492  -0.061136
    26  H   -0.008190   0.005541  -0.000287   0.000007  -0.000001  -0.000001
    27  H    0.003288  -0.046056   0.390055  -0.041306  -0.008189   0.005541
    28  H    0.000000   0.000036  -0.000060  -0.002287   0.003288  -0.046056
    29  H   -0.000000  -0.000000  -0.000000  -0.000001   0.000000   0.000036
    30  H   -0.000001  -0.000001   0.000000   0.000000  -0.000000  -0.000000
              13         14         15         16         17         18
     1  C    0.000003  -0.000003  -0.000001   0.000331   0.004205  -0.062092
     2  C   -0.000003   0.000003  -0.000000   0.000036  -0.000161   0.004206
     3  H    0.000000   0.000000  -0.000000  -0.000001   0.000007  -0.000287
     4  C    0.000000   0.000000  -0.000000   0.000283   0.000036   0.000331
     5  C    0.000003  -0.000003   0.000000   0.000000   0.000003  -0.000003
     6  C   -0.000003   0.000003   0.000000   0.000000  -0.000003   0.000003
     7  H   -0.000001  -0.000000  -0.000000  -0.000000   0.000000   0.000000
     8  C    0.000331   0.000036  -0.000001   0.000283   0.000000   0.000000
     9  C    0.004206  -0.000161   0.000007   0.000036   0.000003  -0.000003
    10  C   -0.062088   0.004205  -0.000287   0.000331  -0.000003   0.000003
    11  H   -0.002287  -0.000060  -0.000018   0.000036  -0.000001  -0.000000
    12  C    0.457832  -0.034178   0.005542  -0.028954   0.000331   0.000036
    13  C    5.027452   0.573800  -0.041305  -0.034180   0.004205  -0.000161
    14  C    0.573800   5.027444   0.390054   0.457841  -0.062086   0.004206
    15  H   -0.041305   0.390054   0.497241  -0.046055  -0.002287  -0.000060
    16  C   -0.034180   0.457841  -0.046055   4.794858   0.457837  -0.034182
    17  C    0.004205  -0.062086  -0.002287   0.457837   5.027449   0.573800
    18  C   -0.000161   0.004206  -0.000060  -0.034182   0.573800   5.027445
    19  H    0.000007  -0.000287  -0.000018   0.005542  -0.041306   0.390054
    20  C    0.000036   0.000331   0.000036  -0.028954  -0.034185   0.457840
    21  C   -0.000475   0.010504  -0.000492  -0.061139  -0.043818  -0.056700
    22  C   -0.000138  -0.000138   0.000008   0.008033  -0.000475   0.010506
    23  C    0.010505  -0.000476   0.000066   0.008032  -0.000138  -0.000138
    24  C   -0.056695  -0.043814   0.000151  -0.061134   0.010503  -0.000475
    25  C   -0.043823  -0.056704   0.007150   0.509536  -0.056697  -0.043819
    26  H    0.000000   0.000000  -0.000000  -0.000000  -0.000000  -0.000001
    27  H   -0.000287   0.000007  -0.000001  -0.000001   0.000000   0.000000
    28  H    0.390055  -0.041306  -0.008189   0.005542  -0.000287   0.000007
    29  H   -0.000060  -0.002287   0.003288  -0.046055   0.390053  -0.041306
    30  H   -0.000000  -0.000001   0.000000   0.000036  -0.000060  -0.002287
              19         20         21         22         23         24
     1  C   -0.002286   0.457825  -0.056686  -0.043820  -0.000475  -0.000139
     2  C   -0.000060  -0.034185  -0.043818  -0.056696   0.010506  -0.000139
     3  H   -0.000018   0.005541   0.000152   0.007149  -0.000492   0.000008
     4  C    0.000036  -0.028948  -0.061132   0.509544  -0.061135   0.008031
     5  C   -0.000001   0.000331   0.010507  -0.056689  -0.043825  -0.000476
     6  C   -0.000000   0.000036  -0.000476  -0.043817  -0.056701   0.010504
     7  H   -0.000000  -0.000001   0.000066   0.000151   0.007150  -0.000492
     8  C   -0.000000   0.000283   0.008032  -0.061126   0.509540  -0.061134
     9  C    0.000000   0.000000  -0.000138   0.010504  -0.056698  -0.043818
    10  C    0.000000   0.000000  -0.000139  -0.000475  -0.043816  -0.056697
    11  H   -0.000000  -0.000000   0.000008   0.000066   0.000152   0.007149
    12  C   -0.000001   0.000283   0.008033   0.008032  -0.061131   0.509528
    13  C    0.000007   0.000036  -0.000475  -0.000138   0.010505  -0.056695
    14  C   -0.000287   0.000331   0.010504  -0.000138  -0.000476  -0.043814
    15  H   -0.000018   0.000036  -0.000492   0.000008   0.000066   0.000151
    16  C    0.005542  -0.028954  -0.061139   0.008033   0.008032  -0.061134
    17  C   -0.041306  -0.034185  -0.043818  -0.000475  -0.000138   0.010503
    18  C    0.390054   0.457840  -0.056700   0.010506  -0.000138  -0.000475
    19  H    0.497247  -0.046055   0.007149  -0.000492   0.000008   0.000066
    20  C   -0.046055   4.794831   0.509558  -0.061127   0.008032   0.008033
    21  C    0.007149   0.509558   5.014618   0.476491  -0.087457  -0.087431
    22  C   -0.000492  -0.061127   0.476491   5.014628   0.476484  -0.087450
    23  C    0.000008   0.008032  -0.087457   0.476484   5.014632   0.476489
    24  C    0.000066   0.008033  -0.087431  -0.087450   0.476489   5.014603
    25  C    0.000151  -0.061134   0.476465  -0.087444  -0.087435   0.476492
    26  H    0.000000   0.000036  -0.000492   0.007149   0.000152   0.000066
    27  H   -0.000000  -0.000000   0.000008  -0.000492   0.007149   0.000151
    28  H   -0.000001  -0.000001   0.000066   0.000008  -0.000492   0.007149
    29  H   -0.008189   0.005542   0.000152   0.000066   0.000008  -0.000492
    30  H    0.003288  -0.046055   0.007149   0.000152   0.000066   0.000008
              25         26         27         28         29         30
     1  C    0.010506  -0.000060  -0.000000   0.000000  -0.000287   0.390053
     2  C   -0.000475  -0.002287  -0.000001   0.000000   0.000007  -0.041307
     3  H    0.000066   0.003288   0.000000  -0.000000  -0.000001  -0.008189
     4  C    0.008031  -0.046054   0.000036  -0.000000  -0.000001   0.005542
     5  C   -0.000138   0.390053  -0.000060  -0.000000   0.000000  -0.000287
     6  C   -0.000138  -0.041306  -0.002286  -0.000001   0.000000   0.000007
     7  H    0.000008  -0.008190   0.003288   0.000000  -0.000000  -0.000001
     8  C    0.008033   0.005541  -0.046056   0.000036  -0.000000  -0.000001
     9  C   -0.000476  -0.000287   0.390055  -0.000060  -0.000000   0.000000
    10  C    0.010504   0.000007  -0.041306  -0.002287  -0.000001   0.000000
    11  H   -0.000492  -0.000001  -0.008189   0.003288   0.000000  -0.000000
    12  C   -0.061136  -0.000001   0.005541  -0.046056   0.000036  -0.000000
    13  C   -0.043823   0.000000  -0.000287   0.390055  -0.000060  -0.000000
    14  C   -0.056704   0.000000   0.000007  -0.041306  -0.002287  -0.000001
    15  H    0.007150  -0.000000  -0.000001  -0.008189   0.003288   0.000000
    16  C    0.509536  -0.000000  -0.000001   0.005542  -0.046055   0.000036
    17  C   -0.056697  -0.000000   0.000000  -0.000287   0.390053  -0.000060
    18  C   -0.043819  -0.000001   0.000000   0.000007  -0.041306  -0.002287
    19  H    0.000151   0.000000  -0.000000  -0.000001  -0.008189   0.003288
    20  C   -0.061134   0.000036  -0.000000  -0.000001   0.005542  -0.046055
    21  C    0.476465  -0.000492   0.000008   0.000066   0.000152   0.007149
    22  C   -0.087444   0.007149  -0.000492   0.000008   0.000066   0.000152
    23  C   -0.087435   0.000152   0.007149  -0.000492   0.000008   0.000066
    24  C    0.476492   0.000066   0.000151   0.007149  -0.000492   0.000008
    25  C    5.014618   0.000008   0.000066   0.000152   0.007149  -0.000492
    26  H    0.000008   0.497247  -0.000018  -0.000000  -0.000000  -0.000018
    27  H    0.000066  -0.000018   0.497246  -0.000018  -0.000000  -0.000000
    28  H    0.000152  -0.000000  -0.000018   0.497246  -0.000018  -0.000000
    29  H    0.007149  -0.000000  -0.000000  -0.000018   0.497247  -0.000018
    30  H   -0.000492  -0.000018  -0.000000  -0.000000  -0.000018   0.497249
 Mulliken charges:
               1
     1  C   -0.226913
     2  C   -0.226925
     3  H    0.195167
     4  C    0.092107
     5  C   -0.226932
     6  C   -0.226918
     7  H    0.195166
     8  C    0.092061
     9  C   -0.226924
    10  C   -0.226911
    11  H    0.195167
    12  C    0.092065
    13  C   -0.226929
    14  C   -0.226929
    15  H    0.195169
    16  C    0.092062
    17  C   -0.226926
    18  C   -0.226923
    19  H    0.195165
    20  C    0.092069
    21  C   -0.028565
    22  C   -0.028591
    23  C   -0.028560
    24  C   -0.028547
    25  C   -0.028532
    26  H    0.195166
    27  H    0.195165
    28  H    0.195166
    29  H    0.195166
    30  H    0.195164
 Sum of Mulliken charges =  -0.00000
 Mulliken charges with hydrogens summed into heavy atoms:
               1
     1  C   -0.031749
     2  C   -0.031758
     4  C    0.092107
     5  C   -0.031767
     6  C   -0.031752
     8  C    0.092061
     9  C   -0.031759
    10  C   -0.031744
    12  C    0.092065
    13  C   -0.031763
    14  C   -0.031760
    16  C    0.092062
    17  C   -0.031760
    18  C   -0.031758
    20  C    0.092069
    21  C   -0.028565
    22  C   -0.028591
    23  C   -0.028560
    24  C   -0.028547
    25  C   -0.028532
 Electronic spatial extent (au):  <R**2>=           4059.4913
 Charge=             -0.0000 electrons
 Dipole moment (field-independent basis, Debye):
    X=             -0.0000    Y=             -0.0001    Z=             -2.1680  Tot=              2.1680
 Quadrupole moment (field-independent basis, Debye-Ang):
   XX=           -100.3558   YY=           -100.3555   ZZ=           -119.8222
   XY=             -0.0001   XZ=              0.0001   YZ=             -0.0001
 Traceless Quadrupole moment (field-independent basis, Debye-Ang):
   XX=              6.4887   YY=              6.4890   ZZ=            -12.9777
   XY=             -0.0001   XZ=              0.0001   YZ=             -0.0001
 Octapole moment (field-independent basis, Debye-Ang**2):
  XXX=              0.0014  YYY=             -0.0023  ZZZ=              0.4159  XYY=              0.0007
  XXY=             -0.0013  XXZ=            -27.0192  XZZ=              0.0005  YZZ=             -0.0005
  YYZ=            -27.0175  XYZ=             -0.0011
 Hexadecapole moment (field-independent basis, Debye-Ang**3):
 XXXX=          -2546.6450 YYYY=          -2546.6641 ZZZZ=           -240.8097 XXXY=              0.0050
 XXXZ=             -0.0000 YYYX=              0.0051 YYYZ=              0.0153 ZZZX=             -0.0014
 ZZZY=              0.0157 XXYY=           -848.8848 XXZZ=           -532.2875 YYZZ=           -532.2965
 XXYZ=              0.0022 YYXZ=              0.0008 ZZXY=              0.0052
 N-N= 1.383308747925D+03 E-N=-4.549410296621D+03  KE= 7.649699035919D+02
 There are a total of      678820 grid points.
 ElSum from          density=      130.0000259869
 ElSum from atomic densities=      130.0000120546
 Hirshfeld populations at iteration   1 (CA, CB, DipXYZ):
               1          2          3          4          5
     1  C    3.018093   3.018093  -0.044058   0.039910  -0.002922
     2  C    3.018094   3.018094   0.055893  -0.020256  -0.002928
     3  H    0.478323   0.478323   0.123639   0.069036  -0.049771
     4  C    3.000054   3.000054   0.042480   0.017990  -0.012121
     5  C    3.018094   3.018094   0.024336   0.054240  -0.002933
     6  C    3.018094   3.018094  -0.001988  -0.059414  -0.002905
     7  H    0.478324   0.478324   0.103870  -0.096253  -0.049759
     8  C    3.000056   3.000056   0.030243  -0.034854  -0.012084
     9  C    3.018093   3.018093   0.059103  -0.006395  -0.002909
    10  C    3.018092   3.018092  -0.057126  -0.016463  -0.002924
    11  H    0.478323   0.478323  -0.059448  -0.128524  -0.049769
    12  C    3.000053   3.000053  -0.023791  -0.039527  -0.012107
    13  C    3.018094   3.018094   0.012186  -0.058191  -0.002903
    14  C    3.018094   3.018094  -0.033321   0.049244  -0.002906
    15  H    0.478323   0.478323  -0.140606   0.016821  -0.049768
    16  C    3.000052   3.000052  -0.044942   0.010419  -0.012099
    17  C    3.018092   3.018092  -0.051566  -0.029577  -0.002924
    18  C    3.018093   3.018093   0.036533   0.046895  -0.002907
    19  H    0.478324   0.478324  -0.027453   0.138923  -0.049762
    20  C    3.000056   3.000056  -0.003989   0.045965  -0.012101
    21  C    3.007115   3.007115  -0.000457   0.005118   0.028224
    22  C    3.007116   3.007116   0.004738   0.002007   0.028232
    23  C    3.007117   3.007117   0.003370  -0.003883   0.028243
    24  C    3.007115   3.007115  -0.002658  -0.004408   0.028236
    25  C    3.007112   3.007112  -0.005023   0.001158   0.028224
    26  H    0.478324   0.478324   0.135613   0.040760  -0.049771
    27  H    0.478323   0.478323   0.080676  -0.116381  -0.049764
    28  H    0.478324   0.478324  -0.085753  -0.112692  -0.049766
    29  H    0.478324   0.478324  -0.133673   0.046735  -0.049767
    30  H    0.478324   0.478324   0.003139   0.141574  -0.049763
       Tot  65.000013  65.000013  -0.000031  -0.000022  -0.446174

 Dip from Atomic Chgs             -0.000071   0.000002  -0.406708
         Total Dipole             -0.000102  -0.000021  -0.852882

 Hirshfeld charges, spin densities, dipoles, and CM5 charges using IRadAn=      5:
              Q-H        S-H        Dx         Dy         Dz        Q-CM5   
     1  C   -0.036186   0.000000  -0.044058   0.039910  -0.002922  -0.088356
     2  C   -0.036188   0.000000   0.055893  -0.020256  -0.002928  -0.088358
     3  H    0.043354   0.000000   0.123639   0.069036  -0.049771   0.098984
     4  C   -0.000107   0.000000   0.042480   0.017990  -0.012121  -0.006567
     5  C   -0.036187   0.000000   0.024336   0.054240  -0.002933  -0.088358
     6  C   -0.036189   0.000000  -0.001988  -0.059414  -0.002905  -0.088359
     7  H    0.043352   0.000000   0.103870  -0.096253  -0.049759   0.098982
     8  C   -0.000111   0.000000   0.030243  -0.034854  -0.012084  -0.006570
     9  C   -0.036186   0.000000   0.059103  -0.006395  -0.002909  -0.088356
    10  C   -0.036184   0.000000  -0.057126  -0.016463  -0.002924  -0.088355
    11  H    0.043354   0.000000  -0.059448  -0.128524  -0.049769   0.098984
    12  C   -0.000106   0.000000  -0.023791  -0.039527  -0.012107  -0.006566
    13  C   -0.036188   0.000000   0.012186  -0.058191  -0.002903  -0.088359
    14  C   -0.036188   0.000000  -0.033321   0.049244  -0.002906  -0.088359
    15  H    0.043354   0.000000  -0.140606   0.016821  -0.049768   0.098984
    16  C   -0.000104   0.000000  -0.044942   0.010419  -0.012099  -0.006564
    17  C   -0.036184   0.000000  -0.051566  -0.029577  -0.002924  -0.088354
    18  C   -0.036186   0.000000   0.036533   0.046895  -0.002907  -0.088356
    19  H    0.043353   0.000000  -0.027453   0.138923  -0.049762   0.098983
    20  C   -0.000112   0.000000  -0.003989   0.045965  -0.012101  -0.006571
    21  C   -0.014231   0.000000  -0.000457   0.005118   0.028224  -0.014691
    22  C   -0.014232   0.000000   0.004738   0.002007   0.028232  -0.014693
    23  C   -0.014233   0.000000   0.003370  -0.003883   0.028243  -0.014693
    24  C   -0.014229   0.000000  -0.002658  -0.004408   0.028236  -0.014690
    25  C   -0.014225   0.000000  -0.005023   0.001158   0.028224  -0.014685
    26  H    0.043353   0.000000   0.135613   0.040760  -0.049771   0.098983
    27  H    0.043353   0.000000   0.080676  -0.116381  -0.049764   0.098984
    28  H    0.043352   0.000000  -0.085753  -0.112692  -0.049766   0.098983
    29  H    0.043353   0.000000  -0.133673   0.046735  -0.049767   0.098983
    30  H    0.043353   0.000000   0.003139   0.141574  -0.049763   0.098983
       Tot  -0.000026   0.000000  -0.000031  -0.000022  -0.446174  -0.000026
 Hirshfeld charges with hydrogens summed into heavy atoms:
              Q-H       Q-CM5   
     1  C    0.007167   0.010627
     2  C    0.007166   0.010626
     4  C   -0.000107  -0.006567
     5  C    0.007166   0.010626
     6  C    0.007163   0.010623
     8  C   -0.000111  -0.006570
     9  C    0.007168   0.010627
    10  C    0.007170   0.010630
    12  C   -0.000106  -0.006566
    13  C    0.007164   0.010624
    14  C    0.007165   0.010625
    16  C   -0.000104  -0.006564
    17  C    0.007169   0.010629
    18  C    0.007167   0.010627
    20  C   -0.000112  -0.006571
    21  C   -0.014231  -0.014691
    22  C   -0.014232  -0.014693
    23  C   -0.014233  -0.014693
    24  C   -0.014229  -0.014690
    25  C   -0.014225  -0.014685
 
 EQQ=  0.00000000000     EQD=  0.00000000000     EDD= 0.907941529706E-02
 EQQ+QD+DD= 0.907941529706E-02
 
 1\1\GINC-CU24\SP\RB3LYP\6-311G(d)\C20H10\WANG\10-Jun-2025\0\\# B3LYP/6
 -311G* Pop=Hirshfeld NOSYMM\\From ../../corannulene_opt.out\\0,1\C,0,1
 .051058,3.093339,-0.256699\C,0,2.241637,2.37665,-0.256744\H,0,3.142434
 ,2.872718,-0.611488\C,0,2.292327,0.970862,0.086749\C,0,3.266699,-0.043
 735,-0.256749\C,0,2.95303,-1.39752,-0.256645\H,0,3.703207,-2.100944,-0
 .611322\C,0,1.631715,-1.880154,0.086905\C,0,0.967887,-3.120377,-0.2565
 98\C,0,-0.416569,-3.240356,-0.25665\H,0,-0.853754,-4.171161,-0.611383\
 C,0,-1.283886,-2.132833,0.086836\C,0,-2.668538,-1.88474,-0.256706\C,0,
 -3.210495,-0.605124,-0.256729\H,0,-4.230841,-0.476983,-0.611468\C,0,-2
 .425211,0.561987,0.086797\C,0,-2.617129,1.955536,-0.256709\C,0,-1.5676
 22,2.866392,-0.256655\H,0,-1.761057,3.876414,-0.611346\C,0,-0.21497,2.
 480182,0.086835\C,0,-0.104067,1.200509,0.604293\C,0,1.109592,0.469952,
 0.604288\C,0,0.789824,-0.910053,0.604351\C,0,-0.621463,-1.03238,0.6043
 38\C,0,-1.173915,0.272021,0.604298\H,0,4.24978,0.258044,-0.611499\H,0,
 1.558712,-3.96209,-0.611298\H,0,-3.286469,-2.706749,-0.611431\H,0,-3.5
 8985,2.289228,-0.611434\H,0,1.06782,4.121578,-0.611395\\Version=ES64L-
 G16RevB.01\HF=-768.2974915\RMSD=4.953e-09\Dipole=-0.0000148,-0.0000217
 ,-0.8529695\Quadrupole=4.8241868,4.8244069,-9.6485937,-0.0001051,0.000
 0394,-0.0000579\PG=C01 [X(C20H10)]\\@


 A MAN BEGINS CUTTING HIS WISDOM TEETH THE 1ST
 TIME HE BITES OFF MORE THAN HE CAN CHEW.
 Job cpu time:       0 days  0 hours  5 minutes 43.0 seconds.
 Elapsed time:       0 days  0 hours  0 minutes 19.3 seconds.
 File lengths (MBytes):  RWF=     86 Int=      0 D2E=      0 Chk=     10 Scr=      1
 Normal termination of Gaussian 16 at Tue Jun 10 21:09:48 2025.
